(written by ASE)

1800 atoms
3 atom types

0.0      29.320089632932874  xlo xhi
0.0      29.320089632932874  ylo yhi
0.0      29.320089632932874  zlo zhi

Atoms # atomic

     1   1      5.6574244455409879      19.586698275035943      12.222837430984637
     2   1      25.148621617716913      4.9289885553263808      1.0234948854734414
     3   1      14.235932159531007      2.4120330284161922      21.525959693611288
     4   1      25.726171410109686       6.593607158883688      26.781268226733598
     5   1      17.546073527011124      7.6398734230905125      24.045986952635424
     6   1      18.395572240753438      5.0630202951123024      14.429351123137502
     7   1      3.5795578120209623      1.2225280774828395      22.767006565254395
     8   1      23.730388194907693      16.767349377849445      6.7224759986458249
     9   1     0.38848557794979921      3.6031159056997595      16.935600385641422
    10   1      21.165939737894494        28.4898624004719      20.570296946554681
    11   1      8.6529975047025278     0.98961977842622706      9.1714985814210586
    12   1     0.85551067434558004      20.184271428034691      18.363995918502155
    13   1     0.18363890095532859       17.91736287415419      22.270385352999462
    14   1       26.44435390829473     0.38855157341522811      3.1146415866577377
    15   1      24.232496207714767      11.653904549404183      22.182743196441717
    16   1      17.108676248112502       9.584365313361543      7.5602516032271243
    17   1      15.881947877526082      10.011282303151592       13.57989131728722
    18   1      24.867243844076153       16.40024222999017      17.781390983997813
    19   1      11.973819284771468      14.286107107777138      12.590994051305998
    20   1      15.082405350134447      14.427623063331492      29.174496328348628
    21   1      21.382688110566196      8.0108253412915253      22.062629556071077
    22   1      8.6200942554784188      5.8672949958920801      22.002473740609304
    23   1      10.245956575960168      14.333680790934313      7.2613904889287353
    24   1      17.861850693885536      11.800825878619909      13.748599998702222
    25   1      16.650600404225433      21.368487329379683      11.101233137916633
    26   1      15.626621439812755       14.01724279954183      22.502060697381062
    27   1      26.373027005730666      5.6137973887827188      8.2253045113809033
    28   1     0.93647358030364303      21.504132410463864      26.442456522014414
    29   1      5.3689722355623601      10.872869643192651      9.2559685551550572
    30   1      3.6794344678350575      6.9361119610674642      5.7721766566955983
    31   1      1.5370650122398659      11.664625554274664      7.7051528296116691
    32   1      24.322972489038573     0.77109147235187725       14.94234967930662
    33   1       16.81505630755429      5.1168856157037927      22.705817671515913
    34   1      18.502464555924668      2.0350001175969661      1.2612972050650459
    35   1      10.683127080950827      11.835881257906205     0.94803846652571966
    36   1      12.427302978359686      6.4454126589187544      16.679510752613208
    37   1      26.362860064526078      26.813769307807192      7.3419546507131566
    38   1      13.046272596165904      21.869502300065896      1.9499984014379605
    39   1      13.135407149622734      24.919493551673423      5.0318790392048705
    40   1      10.128443313564636       9.215708061348499      9.0900200344340654
    41   1      4.5169695317773257      12.692143617263827      2.1468818816029001
    42   1      7.7043137594774205      25.543891541339995      24.864688782286009
    43   1      5.5426560663072388      28.897215567187551      11.200004439788056
    44   1      9.6285493670312974      29.263238957486973      18.050476834531722
    45   1      4.1430156661762432      6.2533121388031763      2.0578231682642403
    46   1      4.0162632973223227      12.675016210972336      12.359387240986873
    47   1      21.067492526550204       1.346506327640657      0.1543347035892422
    48   1      15.119619062006157      16.970257755661077      26.699373317071107
    49   1      3.6385895512899977      22.260604558508785      10.204397985595758
    50   1      1.7228055680248109      13.607235431861325       10.37635556723032
    51   1      3.3612746812177683      14.380693440420707      20.484690103451108
    52   1       3.032782416658204       1.444918853630704      14.616185534357328
    53   1      19.331518191209344      23.680042638665345       3.005334553659333
    54   1      8.4997749365130684       9.500557022521221      3.7510726031525956
    55   1      12.839169025927013      3.7196509580636445      10.219478782409501
    56   1      23.426926506672874      20.948874697832238      10.408854955306706
    57   1      7.0983070353161191      20.248792728473742      1.7529196177016939
    58   1      27.981035402426809       27.19327136729807       1.798618497484483
    59   1      26.788551414458219      6.5111652418866246      18.819246590727705
    60   1      6.9291405321658335      7.5697098606119324      22.345873578568582
    61   1      19.442005102947618      7.4949884321801257      10.161239424690018
    62   1       17.83720700908205      24.354384797369615      12.413734168162341
    63   1      28.747224126345422      13.537475082331955      20.347657975861438
    64   1      6.1836015945821012      1.0257364851090207      8.8544140433784833
    65   1      14.142483296845658      8.7853466041680619      19.134549680697216
    66   1      16.631879568346982      3.7198570922530347      5.3244756241332336
    67   1      14.724700957825682      20.353373050067056      11.750384240501022
    68   1        11.0283410392436      18.640768845801471      8.6220705095040202
    69   1      21.675881761453248      6.4222129579686023      28.751093406054054
    70   1      10.277366914350592      10.051734989867152      5.8487135959758589
    71   1      10.946390024639587      15.772371197868358      17.587995988105675
    72   1      20.640090784304785      4.0715089947932679      19.779531092686401
    73   1       2.987644011713896      6.9829765090812526      25.443681219365235
    74   1      15.266145116412583      0.7659471392476942      14.180170466702357
    75   1      28.012367676656677      23.412581353204022     0.19673446595629199
    76   1      14.097882888058194      27.615518029591961      16.428464074896265
    77   1      1.6678184074320399      2.5515145295739852      4.5465362142892163
    78   1      20.216885689135886      22.287690407352219      7.1023122938971301
    79   1      25.095299076917005     0.27793572191665639      25.065586963980429
    80   1      1.7482466479127581      26.881628951005037      27.715392220647935
    81   1      28.641776085208516      16.367577760227377      27.673103465799745
    82   1      19.837710737807615      18.896211982758416      3.9216693589632667
    83   1      23.776834277284731       10.96714501053248      13.979937877199166
    84   1      5.9822593004992104       26.00729070886775       1.916286056281316
    85   1      11.143109830287559      22.884941664982385       2.624188988872723
    86   1      24.326462927497062      7.3745933620537256      9.1290903723609205
    87   1     0.74287744419030699      7.7743422395381643      28.588364099855827
    88   1      24.383111186722385      14.034629993429654      12.307086423198065
    89   1      5.4813885679710426      25.610849078811739      25.421659008481715
    90   1      21.214961244326048      5.1590287984982153      22.427096351100882
    91   1      5.1995277118147394      22.135688537665555      5.4796828685617118
    92   1      10.011642318072749      16.108385999267888      26.050676023316562
    93   1       1.531866982371257     0.88048220431800217      28.581222768686718
    94   1      2.1804972421433297      5.2587866892828288      4.4794874777845362
    95   1      2.7734285538463901      9.5809542934902918      9.5847702284354224
    96   1      13.942781191310125      23.586751830358512      15.441404358357214
    97   1      23.237118159973061      3.7921943956622224      5.7115669305564936
    98   1      29.072750194789954       4.630663317752151      21.948726008280374
    99   1      2.2460218951433131      21.050681776397305      23.350102660243955
   100   1      17.579055156654462      9.7864356614011889       20.15234376704128
   101   1      9.0019663648157202      12.931381682502403         15.651109000105
   102   1      14.575417058624955      3.8883762627716041      4.5490172546777146
   103   1      18.016191836166904      4.0265464927477419     0.58577205251071873
   104   1      23.236037341646398      24.126128344740138      14.950679310854287
   105   1       7.611836423331531      20.133639436724362      13.445609321635203
   106   1      9.5864728154692305      4.4537268128833842      28.411517267821544
   107   1      26.992320515375152       3.766918921385737      19.400613272591844
   108   1      17.786241069326078      1.8502167579143398      3.1670457865779591
   109   1      13.448278587323063      23.930798961057082      22.984809409295458
   110   1      15.603235340323264      9.7745344918459125      20.128158360701782
   111   1      18.593663109269166      17.464143933386254      27.261874484151413
   112   1      9.9818029898936658      15.990447161404431      19.478077091117694
   113   1      14.792542087626835      17.438600860087167       23.43905193276774
   114   1      16.031327948220373      28.527953443507386       26.36994925475496
   115   1      13.191119778867382      17.804404065937021        21.5822296399691
   116   1      29.297993425023712      5.6462501144787955      28.452780529390811
   117   1      20.913600572968178      25.780565039937972      7.6683727974536504
   118   1      28.447506349839742      21.848885507067649       22.40803599282528
   119   1      18.950954556487805      2.5502612147225072      23.785265820124692
   120   1      9.8758921928518397      17.571296176094332      11.738815331689642
   121   1      22.700199811303161      21.573238448755383      14.952059698292674
   122   1      8.5583586870885959      12.822390853357069      7.0240426612515225
   123   1      14.864193881888665      18.160239277295442      28.569575221779481
   124   1      12.880109727079883      28.105548684791959      5.8158678668743109
   125   1      4.6862712468497021      9.6977777309861555      17.874648229448724
   126   1      13.839627085745825      3.2395767378624782       28.04876007784129
   127   1      5.3986254010775001      23.093485631648857       21.35607012838544
   128   1      27.250263842770217      4.0248267863175142      6.7222758818384882
   129   1       21.35787861583449      2.5376312542107295      4.9997145023078176
   130   1      21.178969868437783      25.419440277279801      9.5307648830571772
   131   1      19.894132663320704      1.8568785169351234      21.947098323322638
   132   1      28.301487593415647      26.703883087380575       15.38404126966579
   133   1      19.669067264751416       6.453804873545371      8.3323736258385299
   134   1      22.766926275190162      15.485588104304977      2.8092088885314253
   135   1      10.029596881397811      9.1934623296948708      22.732719200153586
   136   1      24.406233289274432      1.9099918361371091      23.652097153887919
   137   1     0.49030084546225938       11.15327419529959      2.1727982222634683
   138   1      19.544734614089773      25.347110475560285       19.97976111791635
   139   1       18.95676828823979      23.840870452688041      17.129052934157674
   140   1      21.488790586813952      8.7838859207073998     0.93867094599195833
   141   1      20.976946595997905      11.353998207429361      12.961387101893489
   142   1    0.079390628056044493      15.022392130458119      7.2412647042114404
   143   1      17.841637764415005      25.636749673436864      10.528479208982217
   144   1      5.5855548607064449      22.300862797318945      18.440842502461095
   145   1      23.747224272111428      23.527942937755604      12.716943273946955
   146   1       11.49838644138814      2.8579811184052151      21.028046286313007
   147   1      26.843902495489679      23.052003086461319      17.386670512203903
   148   1      24.590364829296558      1.3472055220744787      17.656480969782827
   149   1      3.8794320574903352        5.92992997963084      8.9184727374772823
   150   1      23.438791436645399      15.111066787382493      28.857563594537975
   151   1       16.78635269515722      18.293731407223198      17.192804884495434
   152   1      1.4438328819449122      25.518599744021692      9.0181015470820505
   153   1      16.214613942383004     0.31392812606116838      28.703832586085941
   154   1      26.386552420952857      14.534379582096031      20.215180942116323
   155   1      14.342506598587132      24.050054688295692      12.080224062231984
   156   1       23.46313326336486      17.933013235317041      9.5868584325091586
   157   1      14.550785444433327      21.720496914922808      8.5633500887864535
   158   1      6.3578617532564339      2.7072640755930641      13.510442403143294
   159   1      6.0691132135996568      28.472982203259445      8.2670752064729172
   160   1      7.0049965603841891      25.929783860446257      18.020058624282203
   161   1      22.998965901029525      4.3645678733398796       20.43218950271028
   162   1      11.548050317452182      18.972372907976343      6.7275308263916456
   163   1      28.455584607297631      19.552775328140939      21.248934233490484
   164   1      22.470402471684313      14.532728570705469      22.554578764928713
   165   1      8.5399497637301369      5.4482936115312395      10.665404284694709
   166   1      4.2029231918162946       9.508409562221404      15.427914529570494
   167   1      19.548229682089922      18.314200681129879      28.749719144265217
   168   1      17.145206940181239      0.2269965852247611      6.5851231702185231
   169   1      28.987199725158682      0.3321759796652618     0.97837179371001814
   170   1      22.138942970510357      1.5920749385625064      12.945459954252565
   171   1      12.666640477260255      8.5628043264642386      1.8244357869445653
   172   1      16.654674263146493      10.858861397014806      26.191677868015542
   173   1      1.7354520560563509      8.9490707128508582      3.5768275914389132
   174   1      4.3336761668469954      16.224152662163373      17.007704549472184
   175   1      27.104470018455867      19.890378408827576       11.29046289595987
   176   1      6.7215160132204925       11.70980784934024      24.681758125514637
   177   1      10.788672550729993      11.729282940167149      8.1028549296988217
   178   1      19.828752405605147      8.0101444154377752      12.022129634345882
   179   1      20.217236323984825      13.383116616646063      1.1157161560227262
   180   1      25.258757034516087       3.985820955103379      14.150122443741123
   181   1      5.9968263929456702      8.5944648390400644      16.454411690079578
   182   1      28.796160861109943     0.51441553064036849      18.477855265273877
   183   1      4.1568656002934894       11.65989515949361      7.6890698745353578
   184   1      3.9617089600707116      1.5425198736022216      26.285771671300246
   185   1      7.1676977275214062      6.9451396452670044      9.8685148053984815
   186   1      14.959612630642647      13.575782606428078      20.671104977990876
   187   1      28.866468632590536      2.1191951910865061      6.1178000183107972
   188   1      13.553976915509265      24.541579002175919      20.601698212610273
   189   1      28.378433514822301      19.284095911751535      4.5774409909567755
   190   1      17.599820186559288      8.9791181680350309      16.954892648055729
   191   1      3.0764108303627582      28.519128220228886       17.25486355363438
   192   1       29.28996938091851      10.201896046864213      8.5906076773416089
   193   1      28.264108268285121      12.759444587150876      2.5711525079861524
   194   1      7.8982477506999844       20.17573031245151      26.023868566107236
   195   1      1.2970393023667202      15.568566643242155        22.9912981320049
   196   1      17.415930052931053       10.05491595026545      1.4717369573891521
   197   1      23.900877420026347      8.9987139102407312      14.458142417514473
   198   1      5.4235398157500594      4.9542965930162399      10.498193594729088
   199   1      5.8587278499150646      24.090861277976664       27.12658038047234
   200   1      1.4203740895641117      27.332630294519927      13.442338836254075
   201   1      19.041471973646257      10.453777559838903      5.3986308918608605
   202   1      1.4196790147468659      10.734675648340506      22.992953337168231
   203   1      29.092350594357878     0.63011790894941888      26.752448102633181
   204   1      11.526526426895783      6.2936925112920541      20.734873692241369
   205   1      28.527021519909262      8.1232684566502069      10.574741179948605
   206   1      4.9895447953127112      16.150665849784076     0.44395703145077647
   207   1      19.118833634692695      16.712096844955681      13.452641917064161
   208   1       28.51787508125717      9.7829379113212873       13.97309450230739
   209   1      18.139026543912014       12.35813793896588      9.3982683150396671
   210   1      7.1791592513869009       27.44334898658321      13.235854725113819
   211   1      6.2939755295251407      2.1878211013876814       18.20471717586517
   212   1      21.729644779376503      13.665890149663548      6.8636543518985453
   213   1      13.276809493105509      15.817651345889226      17.016060382791146
   214   1      12.550149423725243      20.297310395611387      11.501165159927485
   215   1      15.356173726326141      25.250109434371147       15.28309432620283
   216   1      3.8959188524226342      10.346974787812405      0.4960880586431976
   217   1      6.5020120403918389      26.664944512387592      4.3963981651978568
   218   1      25.953969519621161      21.371290581909516      21.122400492298475
   219   1      7.3049516618630079      12.187539836401946      17.817890667507822
   220   1      21.153111278752757      13.672084283041578       17.01841988250348
   221   1      2.5254647192424629      17.501374779208881     0.15193745859102359
   222   1      18.702409989345931     0.24165000538736109       21.79736649147857
   223   1      5.4229343104794303     0.84979927584414938      22.020410817174017
   224   1      17.823675106724078      25.105015407813365      7.4281966737003788
   225   1      7.2938179873431208       8.608312264723132      8.2287641628516415
   226   1      15.574073504585458      4.3204243984632367      8.8669698857543189
   227   1      20.489893612770775      15.333811013483935      15.728052667078339
   228   1      18.974828265425259      3.1851831061285769      4.9208632431630495
   229   1      6.0198585904246356      16.839222317913045      12.428077325236007
   230   1      20.083044799898609      24.630670830646167     0.94804238157635623
   231   1      12.962123745923725      6.5746477929646083      5.0415386306373193
   232   1      26.781042624248805      2.3582515547839233      24.944769348729011
   233   1      24.153745225927569      12.132229963764486       3.207812083037592
   234   1      2.6909511440896461      6.0330910234106518        16.1155683343375
   235   1      17.299852097963388      1.6321998641420776      8.7852308338571685
   236   1       2.776835654765943      24.510924284321007      4.5733057493137821
   237   1      2.2580488045544636      15.284703140487213      14.940227452180444
   238   1      10.026658674664674      7.5277706839264402     0.55243037564194986
   239   1       6.443995445407249      28.978637435430066      23.164204873447673
   240   1      11.977452577045209      27.430256388316419      12.456504894449949
   241   2      23.093151259645172      16.355562291424441      1.0932033424317906
   242   2      20.566858333332473      15.384007072895598      11.684530854979627
   243   2      1.0589734943683684      6.0899622690907433      21.164205533336119
   244   2      16.289990022126162      29.078084699800495      18.504616290574742
   245   2      1.0637541359661731       9.675885732752521     0.55707827778595342
   246   2      2.8615601559105084      4.7856213541253991      13.584791676908475
   247   2      3.6136833368890602      7.5737579568187101      15.354898277908422
   248   2      25.505725243348252      11.951073383062448      7.1154346830871109
   249   2      16.825311610659963      10.831144386927832      3.2161420102113834
   250   2      25.693215082795383      18.472904243901706      19.780811973864719
   251   2      13.542712204535391      6.5500977183472333      20.017377029296213
   252   2      27.465357052067219      1.7503682120786479      4.1715238134055523
   253   2      16.004786105575089      4.9688480967751474      17.503391518335743
   254   2      26.473421370506969      20.373835769846689       29.07771080893038
   255   2      28.425976777029973      23.219017102555547      8.0262384752708567
   256   2      13.290472730432239        11.3085130326659      19.599939554354702
   257   2      2.0983569014337746      19.009452721505511       23.82177106954552
   258   2      9.9671980838777028      24.982285425766857      19.585443223770586
   259   2      7.2337126322526695      11.825277284984598      14.446444124445911
   260   2      17.077934335307443      28.792282710985862      22.618298680794567
   261   2      27.950436483152792      12.387528617825671      4.5248677823295917
   262   2       12.53541049216574      25.107085125271954      16.309177260453339
   263   2      19.665031632020924      26.055023923065058      3.9609082213190581
   264   2      11.135626109489143       15.21598435411228      24.661914578002659
   265   2       12.94549724281009      20.801195584609072      7.7164070145865553
   266   2      11.494366933546923     0.50420547635658231      17.281552006247569
   267   2       27.99266246363084      17.379777960197696      10.804333301989303
   268   2       24.88141162787085      2.5286032665392528       19.67224745259842
   269   2      7.8147143780724679      14.586604556257182      23.058627260557092
   270   2      8.5690940782365494      22.240144104568675       19.34270622820592
   271   2      18.494872914692788      14.398062061869549      1.4791145296496206
   272   2      5.0965149463967965      28.889687186558302      16.608828129365982
   273   2       20.69130694678946      10.353232380057964      6.3568989038902188
   274   2      1.1797827292977836      5.3271395941135529      25.066483402523485
   275   2      8.5652758701413703      14.399338746815804      8.6004509921210452
   276   2      5.4257860209543196      7.7396891068012126      4.1595645571252744
   277   2      15.158482894263969      19.418238485332566      16.094143713392985
   278   2      12.194526981701301      2.1461143621598326      27.377151163809263
   279   2      10.705201493028744      3.0644262228101073      15.993371215753607
   280   2      3.5793702929072575      22.611118486212863      8.0273368059484316
   281   2      15.431324390684324     0.53947873545775171       2.110500170153601
   282   2      16.479016238038255      15.180406159342414      27.981173703016413
   283   2      2.8601780131741248      28.657067229492746       24.11100338703174
   284   2      10.570686396753308      29.162491051955193      9.4063006410428791
   285   2      7.4149849928635643      1.1331930314139234      6.5549894557837689
   286   2      28.617473837597093      20.850269189569218      17.398136122552238
   287   2      5.5018891548481248      5.9261272300914847     0.63443067485093074
   288   2      18.122324555887602      3.8865392196494852      11.696634436664814
   289   2      4.5091177346801983      14.619189556269298      8.2759949615329873
   290   2      26.063122861210843      14.930981618707532      15.101094893068828
   291   2      6.6325082035456893      16.050406012563862      23.344384788881321
   292   2      12.474895550611503      17.831520367432304      23.794563999227062
   293   2      11.998161141760786      24.623868331802385      3.3078904927427311
   294   2      3.6797356560560632      4.0014767796476729      24.693668114135988
   295   2      3.2478215073190939      8.1328947316477045      1.8969230151153789
   296   2      20.066424654385102      6.8330469025651634      26.402360732494927
   297   2      12.369084486898206      9.0608949084413215      16.313728995676396
   298   2      21.852288432589781      9.6888546978312498       8.616692425480494
   299   2      22.221802335877989      22.767549037405722     0.80706169844277542
   300   2      21.960773346559044       24.25374938079921      3.1057667588850868
   301   2      16.052817732860643      27.290317998906929      19.373874785957842
   302   2      10.552764945707084      23.915050096272822      8.0867688988313713
   303   2         17.184869782267       19.88269546282692      28.260119793007412
   304   2      25.202862476541501      4.8983221320182198      27.672840100353646
   305   2     0.93747424615273767      21.188344169167621      5.5196135312518226
   306   2      12.869071981976569      1.0076469038934566      13.898949154833106
   307   2      7.6034919698591317      22.046077989238675      2.9297878129110706
   308   2      17.683717254718513      20.740369641395311      12.595656286072861
   309   2      11.434155032429272      13.021464847201377      17.747456351610939
   310   2      18.703855654280261      9.5985734835423226      13.833948693089637
   311   2      12.513332186101772       26.81670055019222      14.723724509460553
   312   2      14.697206056198031      22.116522075857048      18.843148885043508
   313   2      24.251435467381953      29.143033061186014      8.9749344706577361
   314   2      11.018061076505575      15.618254071095222      11.331878247343445
   315   2      26.830513726867924      4.0848834079669034      23.280883820343085
   316   2      14.648964825001801      12.906458803237706      15.502228001518773
   317   2      3.4925079904713536      2.2793379588207143      19.761490999392493
   318   2      12.214650663666854      16.950932146994642      10.272474681087358
   319   2      20.107992304503867      1.0563839177541801      4.3556827008148451
   320   2      13.896806031291769      10.651522360506354      28.918571155769939
   321   2      7.8015776854289127     0.32564305560087398      2.4312079522874561
   322   2      10.217285030450764        14.0444733411345       14.36143667956121
   323   2      28.142797100142705      13.232236749637725      28.619239536561878
   324   2      14.685208626460408      26.980729609069048      12.638893772458948
   325   2      16.477003988817838      5.8332572245422183      2.0039587636700169
   326   2      10.528295182532021      11.212601014303054      21.998327416977062
   327   2      19.453614345368898      28.943033628041842      15.029222794910821
   328   2      18.934874334666937      12.992713341678092       3.188561140359524
   329   2      27.828691686474613      6.4050893941415215      2.5524566674750973
   330   2      22.192957933584914      11.794086788250933        26.6322677664106
   331   2      13.699501702507781      8.1078883859434345      22.587984184445741
   332   2      1.2825241530485965     0.81200517668019068      10.158232774258247
   333   2      2.6320079099731726      26.254570202418137         18.520450168398
   334   2      24.628822075103621      0.8492555852001219      11.729039372965094
   335   2      28.003968498376729      11.174197240279375      1.3515198703353373
   336   2      20.926744762050607      16.723484589922521      22.145577695760025
   337   2      19.059602251868704      11.094639525142712      19.474168970312331
   338   2      18.225615915434574       13.93450674534523       24.17273958661135
   339   2      3.7337446514364685      14.215504206840473      11.259783586540649
   340   2      4.9062078488394425     0.75490397205359361      18.449449922750727
   341   2      26.826755852446095      0.4444500441401717       24.00174570381925
   342   2      15.331415411611671      16.633705766148953     0.39359460362939969
   343   2      26.679901008244034      6.0220785349960737      6.2446623405281256
   344   2      4.9040222968614602      2.7193836964081077       23.54705111711429
   345   2      11.480276661395235      3.1040036501674977    0.066502359337218403
   346   2      10.077929666284154      20.464234039812009      9.0509485601874289
   347   2      3.1750946333950467      17.311432366483647      19.036334123703178
   348   2      18.415804777407867       19.67806457038872      2.0163030197334635
   349   2      28.761560594367904      24.753783092849993      24.554356059131152
   350   2      27.742276685492772       10.85431515369636      7.6609697578377132
   351   2      28.115258545225803      14.955207244995297      10.719835652062763
   352   2      7.1815226819689704      27.360823040099362      6.4181193285713345
   353   2      27.200789435812219      4.3720148612396068      26.876703276739601
   354   2       15.91184259051802      2.8742947052227001      18.947504687013854
   355   2      6.7957793883471185      8.6580827575426405      3.0989002346854893
   356   2      1.0660595646966429      13.409908853347067      8.5360641701799782
   357   2      21.453061846147474       1.137067504233251      2.9012626137275532
   358   2      3.6517558809744912      11.854435991639116      19.249334818263694
   359   2      13.596625707187501      15.653017299321551      3.3064318317525947