/home/nozawa/SiO2-Na2O_PaiNN/lammps/sample_NS22_5.data (written by ASE) 

1800 	 atoms 
3  atom types
0.0      29.348227991425141  xlo xhi
0.0      29.348227991425141  ylo yhi
0.0      29.348227991425141  zlo zhi


Atoms 

     1   1      27.143840791260363      22.729371375517832      10.655621537787498
     2   1       7.530291906688543      14.260781019647835      25.182418056456996
     3   1      9.3380406381443564      2.8888151980725811       20.62850144653261
     4   1      27.051201071533992      17.712402165613508      1.3946706841317347
     5   1        16.9902357955756      20.068794704662864      19.750143686605835
     6   1      11.732645771916109      21.822633458310161      16.501385726982079
     7   1      13.467459026089667      13.680687954623389      9.0145560345567795
     8   1       27.20893310442619      2.4697424678646795       9.311277660355513
     9   1      13.918458718586612      1.5592997794376051     0.99787317826050037
    10   1      15.439039393324419      13.872794893879401      28.592529941499439
    11   1      3.0917334046272003      4.7651441629374629      7.8561721424892292
    12   1      18.617716172690368      19.925524512222193      2.4449896662395987
    13   1      2.5944862367661266      26.220559779169623      24.568733847757539
    14   1       4.917200226674086      27.584458573609737      21.704887996780077
    15   1      3.8779860169667963      22.629982566009595      25.452905659746634
    16   1       3.965613689537435      14.875133291343912      14.686799292377497
    17   1      15.780314558125854      23.294637950378341      3.8349194380528968
    18   1      9.9585647402402966      9.6054604459495945      19.264971441518732
    19   1       26.45954126642291      20.818917058600281        18.2025025496526
    20   1      18.057297895543694      22.897442208362353      5.9447202301467019
    21   1      29.067656035390879      2.0684652392445786      16.682455449236883
    22   1      2.3170873877369784      23.630909464983844      23.450884476392275
    23   1      5.8915401490976977      12.639282752493113      18.620694919316886
    24   1      5.9616000543672936      9.6679101401289689       19.90949940171188
    25   1      24.868258541318752      6.5413631511835097      25.646405579158962
    26   1      20.486673317388608      9.1137568525019343      19.606494159415281
    27   1      1.2030406614664648      10.982908325360537       26.89784107576455
    28   1      11.487143105923497      13.362069448521902      11.276201899782903
    29   1      28.325981751033734      15.055093768274981      19.821251646510799
    30   1      1.3462685424912046      17.627276317265462      22.626393864588902
    31   1      1.9556515845252997      10.762833651207824      13.575876991114454
    32   1      4.7728631388780869      16.217573429131328      25.547680290583873
    33   1      4.3018869966295705      26.803139815652731      6.2159900545145295
    34   1      22.092577860248099      16.323976529988357      14.723200823812693
    35   1      7.9621194197034431      5.7014763841619889      26.780127546389508
    36   1      17.779130583322242      24.076434045624666      23.282551405783906
    37   1      5.3631214960759896      19.948280198358329      25.824847639841945
    38   1      26.260895107076745      8.8547945640742931      15.889604360960913
    39   1      5.0417265993094134      3.6964901537925519      22.212812268349172
    40   1      24.543557102282385      23.091790244520638      24.408095680393231
    41   1      20.191806128411901      3.3908207088406237      25.219280325989082
    42   1      25.061410915851184      8.9590994317546198      19.649662625034711
    43   1      9.9986669686694896      26.105373451429106      17.638567326491412
    44   1      28.793482136568265      11.653285468351305      14.842677653983506
    45   1     0.80527837315161377       26.80297114582994      17.649611643635367
    46   1      22.191194910314547      7.2024317717607795      8.2043223597690123
    47   1      27.626831126465028      17.181849182138709      18.350536786123165
    48   1      15.193446715168399      2.4245215075305215       21.64964620574673
    49   1      18.144758013106642      11.233319009823672      3.7600543987729353
    50   1       14.20514673549787      11.702015884815269      17.513908003232309
    51   1     0.41580122025180261      8.4962533812118242      20.119287750173459
    52   1      18.235327784527197      13.542468993514543      15.324197082257585
    53   1      13.556929006802646      10.202351190747638      26.080769289274066
    54   1      18.339641224911176       23.75255903674892       21.37787015187552
    55   1      4.2763932783359051      5.5460008403559247      27.694270872406932
    56   1      17.124234951829656      16.631893679048019     0.90695315599562676
    57   1      3.9876206011692754     0.86348391698734017      5.2909077647316005
    58   1      16.796301925921608      7.0759253456843103      23.315083724736343
    59   1      18.367729855328786      5.0494008219202557      12.936216355401356
    60   1      17.245282892915423      11.830541192664548      20.639171229849705
    61   1      7.0213347847362808      14.294163009167566      6.1191285070868586
    62   1      22.934477592161588      28.968538565771571      28.910179318859882
    63   1      27.790821721431293      28.221152212880369      8.5562386118776921
    64   1      22.638147716080141      6.4364805977748727      24.451320775508275
    65   1      7.0671146580688502      26.931229886840143      19.355016898445889
    66   1      9.6512723465842036       15.64344196057008        4.04328948901638
    67   1      15.247657668677636      28.971749485116906      18.569490535042014
    68   1      20.878779229143777     0.64323384347150447      12.146356897538521
    69   1      12.514639626767142      23.146738682921004      12.115378733963432
    70   1      26.975084132790993      4.2151343124959979      16.478649745838879
    71   1      20.159248099903994      18.919956224148454      22.728864025779735
    72   1      5.7090280278387642      5.7268780269985973       21.51119638139054
    73   1      24.663750064703795      4.8494670906954394      18.099361627059178
    74   1      1.0521431909399477      12.538149876767916      24.379405659148038
    75   1      8.3484175087376187      23.183974770734125          5.152729284206
    76   1      16.978296645172442      28.621803737025875      19.943567952882496
    77   1      6.8897440227653108      14.142948908275361      20.657796067618946
    78   1       8.605320441502176      20.069263952893305      9.5338810797434874
    79   1      14.604742959995489      2.8525153567555894       12.68122166838122
    80   1      2.5531811932667998      13.142349076641032      14.519401878880153
    81   1      24.011285398244794      28.091081975664661      17.052216909068125
    82   1      25.668437197284778      7.9281268834748913      21.580737260406014
    83   1      14.315738527069778      1.3785882058892325      9.6967172825580512
    84   1      5.2697246883617161      28.351845976846555      7.1569196579537904
    85   1      24.184075677581784      19.511256632029848      17.297372442719102
    86   1       27.04237995564398      19.516283629177497      11.171757388426544
    87   1      4.5752005364677686      9.1205116789639327     0.53905004872517726
    88   1      24.047431594819017      24.197732696418083      15.513611574476839
    89   1      21.558142090158469      28.687021589131511      22.742181031589272
    90   1      1.6380833489675544      17.166318029398802      1.5736241741240466
    91   1      21.456190132705519      9.8081486548751435      5.1057254311456939
    92   1      24.552286574032461      7.6692079322347491      3.5921671190705631
    93   1      15.488812204173804      16.965275604381596      4.1847028959978978
    94   1      18.021505659858441     0.71873942072535901      16.901465782472471
    95   1      16.773722530345182      28.350162857056034      28.417378950517168
    96   1      27.006398843663806      16.373182268291547       23.28138190518348
    97   1      7.8590771100029624      7.6033304284533756      7.1979354149017061
    98   1      6.6060453494978857      21.533937396771044      22.540416485254962
    99   1       17.14564980156949      6.2613811887795894      6.5737338604230837
   100   1      16.903011287219883      16.096209517445253      15.261923221106986
   101   1      26.136928485486628       17.37944723302844      9.1706266427600109
   102   1      23.563464050970044      22.996442449792031      26.235808959965905
   103   1      21.144540684074165      12.513576067855542      13.950502033279344
   104   1      28.699830864173173      10.508208195392609       5.208159379530807
   105   1      5.0445687951098481      22.936635250126987      19.604059059143903
   106   1      23.576662882603131      22.676200284335156      28.817619122261981
   107   1      18.588128751025891       25.29619667552403      16.418162356838863
   108   1      22.990297446246728      24.066732317435783      9.8789948640034346
   109   1      12.908268458729319     0.85498137554733689      8.1930023732481683
   110   1      1.2671788714437449      5.8657920091864311      23.056918407703943
   111   1      9.7667162627912507      14.470324604524832      1.1555259225164052
   112   1       1.306433755330449      7.7582766718537828      16.254119217798209
   113   1      20.082828715956829      19.253901663719219      1.2574409533068012
   114   1      23.305204518266134      24.833669352919873      3.9995039545691609
   115   1      23.177499788444653      18.485262307466439      19.998489392917079
   116   1      22.105560714946499      12.697655894291913      19.957895304198203
   117   1      4.1859957315839571      27.756777415105418      14.135254694828525
   118   1      4.4828607147075079      6.7122319153744687      2.3264475937919715
   119   1      14.018202727842095      19.914862306987136      25.824160187904386
   120   1      28.072293911614558      11.366133984741353      12.214040846457507
   121   1      27.938535932364108    0.056329642986139898      6.9648876194131599
   122   1      29.269748047603212      25.401707063196401     0.95324674506863227
   123   1      13.804826510743048      4.1544227639586095      16.958323417040052
   124   1      9.3845373579803617      10.923886602408277      2.9568263509819039
   125   1      22.542204389916723      3.2408344810645682      10.172312288602036
   126   1      3.5935078604764552      0.1227922387244695      15.902911690891363
   127   1      18.963870610297356      4.2695865592916853      10.776177077335554
   128   1      10.152673316589482      20.703140071064659      26.053288931205664
   129   1      21.307121705004146      19.317659163169051      7.3497191977026928
   130   1      11.527150508548752      22.664293522755926      8.0657185765765647
   131   1      0.1295986011585866      21.881408799936949      20.589547176809003
   132   1       5.092541974196644      4.0216960948258622      3.8028135864732344
   133   1      22.332170771576106      3.9127545163977242      14.453030328231668
   134   1      12.431984399455956     0.65785130223050869      19.287951237625077
   135   1      28.659323242086295      15.400490908342654      23.806379058764552
   136   1      5.9168146233643579      6.0588747655443571      15.808299145163781
   137   1      2.1857089007399813      10.748496741214275      5.1807295845446832
   138   1      23.224384459756028      10.605386656602935      9.9187117228882098
   139   1      8.2038541642586402      3.5747668664395991      3.1181923640397846
   140   1      26.233061220057046      26.525015863664574      28.651371534237665
   141   1      5.1033389984055511      1.7362394183849534      22.666132699530159
   142   1      9.4967427586972697      24.064385327825093      19.664704427503725
   143   1       3.982737359763739      23.554646931767525      28.231009302162047
   144   1      6.8600052892503225      12.490792357501892      28.612450635554517
   145   1      2.6441456022288095      5.4024351396365624      5.9528427972457365
   146   1      8.9508280894844887      6.2771141083425048      10.799128070216987
   147   1      11.407173950596244      4.2087334589169672      28.550185053251212
   148   1      28.321145021075086      10.132134628280962      27.128207466093727
   149   1      28.687437502481501      20.985032218846019      15.722779305575191
   150   1      13.207748140964124      9.0957663226314711      7.1265903648398474
   151   1      6.6687307311258568      23.057986095045376        17.2965985579233
   152   1      24.973314098026488       3.249937998549258      21.068557224821802
   153   1      13.524751378129588      24.156871269304201      18.497710987352871
   154   1      16.667043414166162      14.864872534696989      22.706151435852956
   155   1      10.176741444104982      6.0837776105655514      12.390824881648614
   156   1      25.042890762549362      13.683403476271113      12.989043574901821
   157   1      4.1063941964858186      27.085228019083747      18.541234717298025
   158   1      21.641618308022107      25.146677701279316      27.292313321341759
   159   1      19.460839640429828      18.596472589881945      4.1070487844823118
   160   1      10.510411148725602      4.3850939350381406      22.272150639703497
   161   1      28.661809408638852      26.213087661352503      27.299073479672639
   162   1      11.011669878916566      12.127818769391089       6.047609671038483
   163   1      0.8730320808218861      12.150942089006774      4.8674284354634318
   164   1      7.9779822584957536      16.896324648671758      10.952660523979683
   165   1      17.091000112619657      15.546687323027106      18.689746172457166
   166   1      4.0339916507142339      21.711255549482857      27.308783345097538
   167   1      20.893461348611954      16.452170898764962       11.41478996643484
   168   1       12.00140527769711      19.370963696548106      1.6822277459345483
   169   1      16.423474785429352      22.655389794797436      28.799864701549613
   170   1      9.5374343541083366      4.4378902597039849      18.903155090920784
   171   1      4.0455016198113771      17.415222202484365      4.0828149661103774
   172   1      13.780206279843179      13.850889669721349      20.941461307547037
   173   1       21.99545165110473      25.612873412873629      14.464129736391458
   174   1      8.0022562262759287      12.641102996803209      7.4417804312705789
   175   1      7.7461862876751972      21.174986037312447      20.940353769734017
   176   1      16.224256056330045      21.873663167822443      17.701112962036582
   177   1      21.412199602253292      11.240903717744409      18.805144804832459
   178   1       8.000979647973649       17.68820156096675      26.159226751464658
   179   1      8.5044543833702555      15.711536802825583       23.95700870169847
   180   1      19.276078075010272      23.703244835863405      7.5517312349040679
   181   1      20.565939913062941      16.756356433062571      17.643621637936185
   182   1      16.607960817874137      27.211954144166246      2.9532066934726706
   183   1      11.402901282449259      24.882158807020502       28.53208262591021
   184   1      29.125933629768802       20.02394414475329      28.464736960333507
   185   1      11.451775389727757      26.258098441567171      18.860995267183924
   186   1       19.16316718483197      29.009334955241691       18.53596956896364
   187   1       3.711029883500383      20.301596140157269      1.1505419532347358
   188   1      16.929669699226739      11.614944397663741      25.165508327109194
   189   1      19.949321136485704      7.8730559886865512       16.34542021953364
   190   1      15.513122487615382      10.001420361230462      9.1897476599974741
   191   1      13.986269571228473      15.431166400470332      26.890951939057761
   192   1      6.8625631248413352      6.8337549088643099      10.865393258127069
   193   1      4.1816872896757662      25.068595618426851       26.72346531372818
   194   1      26.508431435218103      3.4104407667837404      5.2758320865713317
   195   1      27.756121607946071      23.325308206211222      26.684497162124973
   196   1      13.028455001113313      19.947366080432072       14.22675697441446
   197   1      2.2672389556255435      8.8678098460806378      5.7209709367366051
   198   1      28.005371082118074      26.992533090763242      22.196745964672584
   199   1      23.384684197676926      9.5402910068968243      13.213266837367991
   200   1       16.24849014167766      1.6785863003824477      7.8977092576695176
   201   1      11.744274451128534      1.0553874387662643      23.310028130391377
   202   1      12.603683195399004      29.329262187448379      25.411801634015251
   203   1     0.29591530059623422      1.2564696465717686      27.827119679489812
   204   1      16.549707584139089      8.7431833619095798      18.150094302799868
   205   1      21.330055122778795      28.522896055278917      24.999944067150818
   206   1      10.579961264332125      17.296098425805141      23.009202744880167
   207   1      26.703783432390512      14.660564853716627       1.348558270010435
   208   1      17.071323743187371      28.103551653726573      8.1193144343200032
   209   1      29.039078592572576      2.7624095804664597      19.706314929924968
   210   1      12.526067527804123      19.418018523859498      19.994072128234397
   211   1      25.496574859961882       23.80007354981845       14.00986894121578
   212   1      17.016396134006438      19.500744313847878      3.4457181131497792
   213   1      1.5997616948806224      16.415038775214931      24.444106037364001
   214   1     0.81485167822474258      24.674260870364346      15.504778020765368
   215   1      18.905422367800707      26.962901456673695      4.3124426992374199
   216   1      2.8824487357534689      28.846883273805936      12.551791926909504
   217   1      27.227737508794522      8.4251046273511427      26.980867536258842
   218   1      26.271552608215835      17.669211541526689      28.910910815793361
   219   1      12.731139068010492      22.786178121721768      23.239880577077049
   220   1      24.729726799482343      2.7092017707536034      5.8000041818488892
   221   1      19.402564224897031      23.519722012119626      12.205798763501143
   222   1      5.8653909823869101      18.722308165773835      22.700648032695597
   223   1      16.986361236123408      21.314447550539757      7.3262519258666918
   224   1       21.01689599628029       26.96520132632158      3.9238358205906079
   225   1      15.306620961038027      8.1138302596015546      4.8957646030264961
   226   1     0.20595471813610841      12.632722875892474      3.0736366743793178
   227   1      4.6475158379091557      4.3787682805090258      19.167769661278403
   228   1      23.362570419812482      22.955892459138305      14.141629612007454
   229   1      11.798829399640947      3.8520392703127699      15.327438779588233
   230   1      19.971357116198384      6.5512974897666698      3.6041875195309734
   231   1      9.5648110026232747      16.716597936011347      12.873774278459512
   232   1      11.523763475878551      23.359879113881657      4.1868943543978885
   233   1      7.8412404858400624      5.2990250951242679      16.626208687700661
   234   1      21.082957005354253      11.547644590556768       1.157776243402415
   235   1      1.7536901731737728      21.325817104622942      18.420500162509796
   236   1      14.626330198063933      8.1029885853239918      12.830657018639661
   237   1      19.394437687355342      23.647214810296532      17.758145728110371
   238   1      5.8446029467410812      26.356256891108277      28.093566676994154
   239   1     0.89463340765050192       4.524024330838575      17.557881204341363
   240   1      21.674355299096685      5.7303532997419033      3.3580310508417122
   241   1      9.9574086159635922       19.75289179126062      6.2632629509817423
   242   1      10.896953781195359      27.519403856771262       28.85009924548217
   243   1      25.239847024240628      21.548588867033541      13.907070355406127
   244   1      28.812327919327249      24.544696153813444       12.75285886275608
   245   1      2.4956216717955275      10.636960396158642      1.7228116075871378
   246   1      25.290280005140335      7.2983134477067688      14.329685979128758
   247   1      11.542345899664001      14.107020717346577      15.999896250571604
   248   1      15.105787287856717      10.582857727144168      21.427049519394192
   249   1     0.33020186303220922      28.851485737912558      26.288902418065028
   250   1     0.98299043022925936      1.6904754510209676      25.715165249398027
   251   1      19.670551668073315      28.983530574539142       3.247295394292216
   252   1      10.597471855204564      21.753901269244182      5.1194752699254451
   253   1      10.465616783110072      11.801475073781146      7.9097455018845642
   254   1      25.432668949329699      25.719446541153488      18.893752853078457
   255   1      21.745484435148189      7.6475300931314436     0.83567123152510703
   256   1      13.563138363239929      11.538047639618819      20.374733514520187
   257   1      11.135543990159928      26.899407921869649      15.625730298439356
   258   1      3.8237577724750658      23.622275714843617      11.346504345538586
   259   1      23.695600697961265      1.6201072436580919      1.2568500109502176
   260   1      24.048018011348514      14.671821205978414        20.1696302079588
   261   1      25.844414842041484      24.779948691984213      7.0088845228085814
   262   1      24.552999576009359      3.5649935876399987      12.725350934780309
   263   1      22.335705471781125      21.588032505445071      25.401363885302761
   264   1      28.434393365488653      13.788527034294086      13.492191067380734
   265   1      22.953713764402952       22.62754978666009      4.0561664245426874
   266   1      2.2890829506063679      9.0227325668317011      10.586505641661548
   267   1      12.766180230914632      14.272443436766011      25.950869290728072
   268   1       16.36203413389401      9.8706154338565995      6.7810112446600401
   269   1      11.696705044204824      12.079009229136107      23.579912499021201
   270   1      16.805859521748648      12.137822220607168      9.3873356472581531
   271   2      23.740784542563585      18.399434609128622      9.9762151919001116
   272   2      16.861340760134699      17.509818782390454      28.007599227446196
   273   2     0.70583369069822655      11.806980974703256      16.258916147556043
   274   2      5.3788655031305863      15.475158684339645      23.794761994385432
   275   2      24.425524945879303       9.486973872004473      25.122690937215914
   276   2      1.3094434623717544      3.1094991349805654      6.6943249572837651
   277   2      18.862432847609586      6.8963749671295522      18.143993184796706
   278   2       13.94449064580111      10.439476156836797      14.300370000888048
   279   2      2.0731334812904962      16.650414439356158      6.2987721418632141
   280   2      22.858922512926672      24.366110014051088      24.933988132056953
   281   2      28.769190489022836      20.238243461417866      6.5680887185404018
   282   2      16.709671374517701      9.0112149550323881      24.271206734060208
   283   2      10.432925052443125      6.3434531109896657      6.0812649864133714
   284   2      12.383917807126348      14.883699775280391      28.798992902041892
   285   2      11.903726131873301      15.039387329847301      20.188624495535219
   286   2      12.325487552812534      1.7203329988917961      21.479733753319334
   287   2      21.820544067007543       10.34668224197817      20.554743926938649
   288   2      8.9698731013622304      12.481125797051169      21.793295306339328
   289   2      28.252357519751946      20.187371111237898      13.740439019133232
   290   2      1.1366148193490171      3.5656495396414725      10.969676559955692
   291   2      25.077425002073209      19.538511575522779      9.0095214871368068
   292   2      20.799365132325597      21.414395495479738      24.069151155270966
   293   2      14.027592014655326      16.995187720492932      14.728265625733933
   294   2      22.193173127128986      7.6806400898063067      3.7372230472290613
   295   2      6.0816657939875114      12.573071160000845      1.6266638585371087
   296   2      29.332607631793312      17.360895692097507      24.066674714084751
   297   2      2.7635474893547904      10.790941584695153       25.27027112330795
   298   2      21.575295248774466      25.506208851279503       12.52644820602001
   299   2      1.8326731668256069      19.217995805615811      27.726493452796138
   300   2      2.6246120615074697      17.408601897426998      11.340948024066552
   301   2      19.786681379352363      25.420498352081125      2.6264004598963964
   302   2      15.279864969494405      22.845352406298986      7.1072635484851032
   303   2      10.074057903884592     0.90376643701531512      22.184059181643402
   304   2      6.3309568440826629      8.8412990728233591      28.254056298862935
   305   2       8.280453244267278      23.808537708408252      10.482914651057406
   306   2      6.8210748173726028      21.298080106496233        5.14429226804228
   307   2      8.9477185428180714      15.215962144407444      26.054356424510011
   308   2      18.818508037307058      8.7348803693913997      3.1867326178475426
   309   2       11.50033560354632      27.858000320949941      22.938470327348295
   310   2      22.056835553647435      4.7474315314592372      7.1792379634953836
   311   2      22.858431173103153      12.213370283431303      13.075194058994157
   312   2      20.959040096469536      28.559793906240344      15.546178014715672
   313   2     0.49375563027701719        5.72945500312718      28.063359083220725
   314   2      2.5163425798366559      27.519259041815637      16.775873906427314
   315   2      1.6884824116573818      2.2957022505821665      14.512004999437794
   316   2      26.070754191482873      24.439772245698162       25.35571144100879
   317   2      18.375190397831265      28.066134897091505       14.85248249756723
   318   2       7.982630552055241      8.2918442247991404      16.579738543858852
   319   2      8.6005567871696247      8.0295392488138244      26.528666855797102
   320   2      16.010173020452669      16.137865968514539      7.4201999466498894
   321   2      6.2314352275821285      4.8794271218539116      26.725959485383903
   322   2      16.162146557276376      6.5187043377670415      17.924369137778978
   323   2      8.2663237378468697      12.469934655663257      2.0105558349285628
   324   2      7.0232221237826975      24.730271530473111      5.8802648509710247
   325   2      22.454000402048443      1.1115039503697115      20.721100698121194
   326   2      6.4739505168777169      27.516984061568508      3.6412558251060534
   327   2      28.137374576208803      7.3366911093853737      3.7112364477295556
   328   2      16.179183255674342      18.217676670936548      20.941714149882245
   329   2       14.22560836786859      8.1460652846301951     0.96271695979257943
   330   2      28.279469303369375      7.8639836844909112      21.492816076470163
   331   2       15.20991857482495      12.958277558108962      12.939787478163835
   332   2      14.525949588883586      23.812965418221513      5.4755124284471499
   333   2      17.990265973072098       17.25502255988193      3.1026305481050165
   334   2      22.388146969113961     0.49365411804682691      6.6643663398625526
   335   2      24.504424851513122      25.394771629895082    0.020346855607967201
   336   2      0.8884045639549516      19.987542186379155      21.668315529226859
   337   2        1.79406019981255      23.447842715060354      11.230536114946078
   338   2      11.361822562622592      3.4097009705728367      23.756122031805145
   339   2       3.758945912688727      6.7996960420613428      29.224192063701892
   340   2      10.161481454745159      4.9507092372221253      27.048748802547593
   341   2      9.1639786098093072      4.2628415195786022      24.041570901318728
   342   2      10.389503413981998      5.8754575809838192      16.616876410789185
   343   2      18.433793891284729      22.312779156108611      24.059612170872605
   344   2      3.3361264715566388      7.1849863111915173      15.251175586999141
   345   2      14.221678656272378      15.176312851963065      16.361169973613379
   346   2      7.0987795906816089      2.7669084520127076       11.76628048443626
   347   2      10.655397213984756     0.40172220235032791      26.936756503658437
   348   2      12.667209413685152      6.3768086327485696      24.010139063161578
   349   2      4.7251439117768683      13.778789856337225      3.7490442592663564
   350   2      15.824643958603337      18.172552156518865      5.7467046341232884
   351   2      3.0970363901855982      3.0658282024689467      4.8847808018925871
   352   2      19.529381108640361      7.3436275268885804      25.442264760042338
   353   2       22.43331767325077      20.004619713086928      14.606927861364163
   354   2      17.570099949815404      1.9432089549799525      15.163149790320368
   355   2      7.9664100389030681      22.222060014257025    0.036306498786716303
   356   2      7.4403952771317874      19.759195929947484        24.0299525275524
   357   2      10.329842979403191      9.1073384107205335      16.943834313372811
   358   2      26.021884934236631      4.6452912488609215      11.940862162820434