1800
Lattice="29.3482 0 0 0 29.3482 0 0 0 29.3482" Properties=species:S:1:pos:R:3:force:R:3 energy=-12619.2 pbc="T T T"
Na 9.121 -11.3187 9.2379 0.527081 0.334799 -0.486291
Na 7.93276 -1.28411 14.1333 -0.296151 -0.378017 0.0328668
Na 7.25664 2.2393 -10.0358 -0.219649 -0.20715 0.268984
Na 11.3185 3.8047 10.5765 -0.491475 0.563062 -0.240105
Na 11.0563 -10.0455 -3.11555 -0.0459027 0.669757 -0.170738
Na -13.2937 -8.31529 1.24403 -0.466648 -0.0634978 -0.36596
Na -11.8469 -12.8152 -2.84511 0.0714826 0.211812 0.202445
Na -5.54651 13.9365 -5.44452 -0.140309 0.223087 0.162703
Na 1.36486 0.783586 0.478602 0.161567 -0.0776294 -0.477512
Na -8.43165 -2.456 -11.5306 0.756721 0.23957 -0.412799
Na -11.0255 5.94396 13.505 0.133945 -0.0699172 0.00218888
Na -6.44016 -9.07326 -4.14772 -0.0536726 -0.215124 0.488011
Na 7.46524 3.28654 11.0939 0.254717 0.128212 -0.079807
Na 8.95606 4.36467 0.957512 0.152877 -0.113321 0.175142
Na -1.79373 -3.17311 14.2098 0.129747 -0.03845 -0.290563
Na 6.63773 2.69464 -6.89517 -0.30922 0.240713 0.0372432
Na -6.24752 -13.6628 -0.416744 0.421908 0.278577 0.0184292
Na -7.47195 8.68172 11.5171 -0.0788154 0.0165232 0.168781
Na -12.6996 -2.31922 6.71598 -0.150993 -0.063948 -0.00056389
Na -8.27404 2.75991 -4.63869 1.53812 -0.72992 -0.717442
Na -9.76593 -6.12659 11.8783 0.0204717 0.638261 0.226173
Na 0.809313 -2.99345 6.12351 0.20639 0.23103 -0.0172542
Na -4.6311 -5.67501 -1.48297 -0.222655 -0.0437907 -0.114521
Na -9.21686 11.5453 -11.9827 0.689035 -0.0807784 0.116443
Na -10.9449 -12.3464 -11.2822 0.0169234 0.281274 -0.261849
Na 2.71426 -13.3451 -5.34888 -0.51103 0.224063 0.168732
Na -8.69328 -7.54783 8.12168 0.114169 0.110641 0.0991878
Na 9.62971 6.10995 9.57833 -0.35086 0.412467 -0.228704
Na 13.197 -13.1556 12.8351 -0.0970896 0.156585 0.218333
Na -3.09258 12.2142 -6.90416 -0.270711 0.11411 -0.120132
Na -13.9457 -10.7393 10.9077 0.168348 0.391449 0.193468
Na -7.25098 -0.0840231 3.62624 -0.309352 0.108161 -0.516247
Na -3.57694 -5.31904 -12.0975 -0.148366 0.18096 -0.226447
Na 0.29613 -4.0988 -5.74495 -0.217947 0.300299 0.458397
Na 1.0758 11.4203 -9.41034 0.233094 0.0583978 0.544169
Na -2.08718 8.37667 5.06552 0.0835041 0.466991 -0.131239
Na 0.367996 11.0486 1.74681 -0.306539 0.0616986 0.81759
Na -1.48581 3.38733 -3.45263 0.725361 -0.079354 -0.253686
Na -4.55417 6.20434 12.9612 -0.120372 0.0744758 -0.0162295
Na -6.06293 10.9918 -5.98859 0.0230841 -0.024505 0.268548
Na -12.6882 -5.12949 -8.89878 -0.50429 -0.659431 -0.458158
Na 4.37365 -9.79379 -10.311 -0.0248643 0.0966721 -0.112094
Na -13.6977 -14.3234 -10.429 -0.0012173 -0.20597 -0.0758513
Na 6.735 -11.9942 7.58278 -0.262061 -0.257906 -0.151241
Na 9.98909 2.12852 3.12198 0.146716 -0.243836 -0.417549
Na 3.00522 2.6401 -14.6112 0.649586 0.461128 -0.250059
Na 4.3354 8.00803 2.87173 -0.156112 -0.118365 0.279111
Na 9.51612 -8.46355 -0.210351 0.243497 -0.212111 0.152306
Na 4.32979 -6.50345 7.72758 0.400964 -0.092372 0.145572
Na -2.60787 -8.11419 10.236 -0.310475 -0.0918066 0.510146
Na -1.82512 2.66279 7.69399 0.151039 -0.147304 0.668264
Na 3.05618 -5.01184 11.8251 0.400659 -0.23586 -0.470213
Na -0.637405 -12.4144 -6.71056 -0.167905 0.00436796 -0.121457
Na 14.5844 -0.274056 -10.1289 0.296546 0.0172248 0.0636027
Na -9.83243 9.13708 2.66182 -0.0815924 -0.0912919 0.100979
Na 14.4789 -11.8778 -4.46741 -0.358411 -0.710168 0.0170743
Na -11.9841 -7.5656 -7.03154 -0.182969 -0.1645 0.190467
Na -0.246479 -6.9544 -6.91009 0.059943 -0.0179114 0.00464782
Na -3.2334 -11.8514 6.43307 -0.224704 0.595389 -0.363363
Na 2.14696 12.6115 8.00108 0.14267 -0.600627 0.551382
Na -2.21555 -8.57318 0.350129 -0.28561 0.234316 0.0972641
Na -9.48697 5.68629 -2.47634 -0.014529 -0.0926028 -0.0840967
Na -10.5645 -9.12051 5.15379 0.375652 0.47757 -0.174611
Na 8.97023 -3.04963 10.9348 0.5355 -0.0258043 0.31305
Na -14.6612 12.6164 0.695337 -0.260448 0.0701474 0.0122971
Na 11.8155 2.70071 -5.24576 -0.0406407 0.346734 0.292859
Na -2.81087 -8.19257 6.30169 -0.23471 -0.221674 -0.449102
Na -9.67906 13.6727 10.009 -0.0937519 -0.280077 0.0203325
Na -2.52306 -4.8469 0.997298 -0.193907 -0.186428 0.723792
Na 8.35336 10.5582 6.67101 0.0782136 -0.0358165 -0.128603
Na -14.3786 7.71439 -12.0766 0.273708 0.377335 0.174712
Na -11.4208 11.9951 -9.605 -0.211962 -0.00229743 0.344549
Na 3.42972 12.6265 -0.511331 -0.128353 -0.232654 0.288237
Na 11.4204 -13.9545 -5.63907 -0.154533 0.0490851 -0.311266
Na -12.0425 -2.63694 -2.67842 0.18819 -0.149892 -0.413759
Na 11.7868 14.065 -1.03618 0.274551 -0.079031 0.178087
Na 11.0416 12.5811 -4.01828 0.326976 -0.0701564 0.12414
Na 11.0877 -7.86144 9.13159 -0.283827 -0.219519 -0.576306
Na 7.10576 11.1285 1.08134 -0.512095 0.185305 -0.669242
Na 10.46 -13.8392 -10.3813 0.0418259 -0.145428 0.195159
Na 7.99039 9.77611 -8.1329 -0.239165 -0.331508 0.266587
Na 4.73786 -12.6215 10.6094 0.166907 0.111039 -0.624868
Na 5.52883 8.9659 -11.7261 -0.375875 0.354974 0.0370065
Na 1.12797 -7.1568 5.58693 0.441948 -0.117581 -0.0754625
Na -0.651977 -13.0963 3.70796 -0.105283 -0.0869513 0.6661
Na -9.8583 7.26161 -11.5299 -0.714796 -0.19829 0.189325
Na 1.41297 -8.06921 0.859654 -0.0558531 0.0888406 -0.0838629
Na 11.5226 1.67447 8.72359 0.410454 -0.299394 0.242829
Na 12.9951 -3.70166 -12.359 0.0775425 0.148839 -0.0618252
Na -2.48805 -0.96301 -4.85502 0.0641927 -0.0762005 0.404149
Na 14.5635 -4.81244 -2.56684 0.833334 -0.318694 -0.108725
Na -1.28533 -13.8889 -13.4568 -0.0908426 -0.034686 0.162814
Na -10.3408 10.5277 11.5399 -0.106425 -0.0626471 0.226377
Na 12.871 -4.60887 2.69288 -0.198898 0.149187 0.00689167
Na -11.2645 5.14608 10.2455 0.0350835 -0.166927 0.0436527
Na 7.19868 7.57913 13.7031 -0.326534 -0.148579 -0.126429
Na -4.49025 -5.11852 3.93912 -0.238413 -0.638758 -0.0158867
Na -11.2925 -13.415 8.44073 -0.0655768 0.0234585 0.0552803
Na 12.0671 10.7548 -1.20722 -0.268972 -0.0462644 -0.1673
Na 4.44538 8.11601 -8.29334 0.107434 0.506582 -0.624047
Na -5.75877 -3.07345 0.948455 -0.0637617 -0.316716 -0.314071
Na -4.07279 11.4471 7.17223 0.813015 0.758597 0.184983
Na 3.49848 2.6875 -10.7909 0.193589 0.402117 -0.16319
Na -3.51412 11.1365 2.66921 0.580378 0.271771 0.0458504
Na -3.1119 5.46149 -4.78136 0.0566269 0.332503 0.159796
Na -7.44365 14.5332 -12.9397 -0.306931 -0.0152565 0.161501
Na -3.0666 -8.68233 -4.02511 -0.376931 -0.0498539 0.118129
Na -10.0509 9.83614 5.8577 0.166847 -0.444998 -0.00849245
Na 7.73614 -4.14363 -12.0486 -0.394943 -0.338752 -0.0033458
Na 10.4284 7.91621 -3.4953 -0.0191626 -0.176205 -0.135735
Na -0.929771 9.51918 -14.1504 0.185778 0.58863 -0.30622
Na 7.41426 -11.2677 -9.82285 -0.245444 0.125367 -0.445062
Na 6.06413 -12.8901 -12.9561 0.145173 -0.31656 -0.0327543
Na -0.0285948 3.53778 -10.811 -0.0716261 -0.047797 0.293359
Na 9.88433 1.73392 -2.01286 0.0166747 -0.0143058 -0.161832
Na 8.72654 4.16575 -12.6164 -0.0471069 0.256818 -0.243159
Na 14.1095 10.4253 -8.94589 0.546246 0.1614 -0.0665028
Na 5.04552 4.67471 0.894061 0.110074 -0.0570014 0.346035
Na -1.93312 -5.05336 7.34953 -0.200914 0.0727368 0.612953
Na 4.48379 -11.3477 -4.05901 0.12452 0.152285 0.322675
Na 4.02614 -0.847926 6.76436 0.259343 -0.12308 -0.544114
Na 7.39582 0.0277478 9.95775 -0.0458194 -0.00771582 0.458067
Na 3.83534 1.7006 8.88378 0.0142058 0.0690265 0.0649334
Na 11.1609 -6.39936 -4.31568 0.190739 0.0534407 0.162857
Na -7.43217 7.62544 0.578371 0.16911 -0.02505 -0.126672
Na 4.1912 1.25686 -4.72795 0.149859 0.217247 0.125414
Na -1.44048 1.95804 -6.50542 -0.209323 0.190966 0.0171633
Na 9.91352 3.87236 -8.65984 -0.145695 -0.238564 0.0013623
Na 11.0726 7.43744 4.96497 -0.00405732 0.0772714 0.0766273
Na 9.03719 -11.6447 0.739869 0.10446 0.294775 0.114938
Na -3.89262 10.4227 -9.57754 -0.401725 -0.372576 -0.56177
Na -3.15118 8.30777 8.60852 0.0954221 -0.0250598 0.176739
Na -6.0001 11.5608 -2.3109 -0.221628 0.072608 0.366844
Na -0.738463 -4.85556 11.2211 0.532853 -0.225648 0.115388
Na 10.9358 -0.602555 4.36943 0.290785 0.114289 0.201616
Na 4.46711 -7.14743 4.08417 0.0542929 -0.130229 0.20197
Na 1.98071 10.5084 -12.9226 -0.154576 -0.0687808 0.08033
Na -4.2003 -10.0094 12.2885 -0.119815 -0.0834463 0.217223
Na 6.14005 14.5697 -4.78007 0.0367395 0.101688 0.12031
Na -7.88904 6.10851 -9.26744 -0.144483 0.086061 0.202971
Na -6.35617 6.0819 5.24442 -0.024453 0.0138586 -0.279887
Na 3.19366 10.8387 1.93041 -0.122991 0.153307 -0.0407641
Na -6.3145 12.0291 4.02261 -0.892767 -0.0505918 0.263267
Na 13.2457 7.57829 2.59739 0.0242019 0.491483 -0.777878
Na -7.17583 -1.17467 -8.04144 -0.357207 -0.490778 -0.333533
Na 13.8378 10.3668 4.86782 0.775672 -0.373005 -0.0720389
Na 8.50766 -8.42003 11.1357 0.421279 -0.072372 0.483284
Na 0.984492 -12.7916 13.3894 -0.224677 -0.226174 0.0572555
Na -2.61414 5.72331 -0.759713 -0.170658 0.295535 -0.0889675
Na -13.9392 13.2836 13.0356 0.506679 0.0130459 0.313387
Na 14.3582 5.27718 5.04251 -0.101445 -0.215669 -0.12099
Na -3.21359 -7.84511 -7.56722 0.0854366 -0.00799103 0.125024
Na 0.140244 6.74688 7.03553 -0.438773 -0.247828 -0.169844
Na -8.87748 0.798695 11.6382 0.268133 -0.0506391 0.297267
Na -2.28741 4.91383 -13.4829 -0.103306 0.213643 0.0405947
Na -8.7597 -2.685 11.9193 -0.234177 -0.463784 -0.291876
Na -8.32971 -9.48313 11.2729 0.237928 -0.214494 -0.0832623
Na 14.3548 -9.04106 -8.02589 -0.215214 0.0277051 0.0197977
Na -1.52623 -1.78989 1.0287 0.40338 0.0647516 0.211957
Na 3.40088 2.49124 3.77884 0.160847 -0.135281 0.0318332
Na -14.278 -7.72171 3.80475 -0.447226 0.24125 0.388427
Na 7.0369 6.16673 -2.04676 0.106492 0.200874 -0.0671473
Na 5.21016 -7.72171 0.751643 0.724005 -0.39053 -0.0718704
Na 14.1227 8.76631 -3.09074 -0.266105 0.251805 0.120506
Na 6.94595 -14.6066 -10.0388 -0.192145 0.222639 -0.184575
Na 11.6862 -4.26631 10.0862 0.0768385 0.359967 0.126586
Na 0.660787 10.5306 12.7451 -0.00768477 -0.0847508 -0.279515
Na -13.5244 10.9831 -11.5198 -0.140771 -0.25301 0.398729
Na -9.13167 -9.23016 -1.8452 0.239261 0.22909 0.263079
Na 12.2376 6.65245 11.7458 0.315747 0.0781137 -0.168135
Na -1.15513 -7.19544 13.7631 -0.412015 -0.468514 0.0575244
Na 7.90364 8.69886 -4.9389 -0.33838 0.213089 -0.0162486
Na -11.7044 -5.11043 9.54069 0.362102 0.261767 0.206805
Na -12.8809 -2.13803 -5.94834 0.334579 -0.687369 -0.332166
Na -13.9374 7.07031 -0.0397881 -0.35696 0.0677639 0.419549
Na -0.756347 9.26549 -9.82549 0.248352 0.0287811 0.101754
Na -11.2071 0.879577 -1.19676 0.0955663 -0.0115783 -0.289172
Na 13.2111 -5.58599 -9.46829 0.209504 -0.358932 0.115624
Na 0.717697 -11.3868 -3.6508 -0.127523 -0.0938545 -0.0278264
Na -13.1738 0.717698 2.91837 -0.290999 -0.296575 0.166245
Na 12.0851 3.38795 0.276649 -0.00357416 0.0987731 0.000114795
Na 0.791309 6.91354 13.7276 -0.408842 0.386416 -0.62727
Na -14.2223 4.63595 12.9667 0.0510994 -0.15271 -0.418922
Na -7.25664 -1.51466 6.88967 0.272629 0.337884 -0.276651
Na -14.2224 3.58283 -5.79387 0.197204 -0.130896 -0.215162
Na -3.2951 -2.47148 4.09464 0.713944 0.0861457 -0.418633
Na 7.40775 13.1569 -14.1497 -0.250066 -0.0676491 0.145833
Na -6.79822 -11.033 -12.2195 0.223785 -0.25187 0.599679
Na -10.5968 -3.26302 4.21741 -0.285506 0.228113 0.409138
Na -14.1423 -9.13384 6.79763 -0.13191 0.212938 -0.129049
Na 7.04142 -9.86427 13.2998 0.0168383 0.208233 0.673032
Na 7.42552 12.3272 9.14047 -0.14613 0.131198 0.225659
Na -0.730207 -2.16349 9.44652 0.242956 -0.0873936 0.0784522
Na 1.32338 7.33271 -6.27588 -0.141507 -0.0158675 -0.325869
Na -8.73219 -4.08548 -1.38337 0.386746 -0.0211679 0.00892735
Na -2.71635 8.96033 -1.04803 -0.124442 -0.509164 -0.0956517
Na -4.94197 7.52065 -7.94507 -0.0350186 -0.263264 0.0354447
Na -1.61461 -14.4323 12.6812 -0.237741 0.270819 -0.0757959
Na -12.0785 5.37336 -8.89764 -0.00322779 0.414128 -0.18223
Na 1.2769 -2.69434 -0.0377718 -0.0862907 0.189372 -0.104585
Na -5.40096 2.78949 11.0923 -0.351139 0.0830916 -0.442376
Na 4.84914 10.6254 7.99834 0.289757 0.0371236 0.00763392
Na 9.90378 -9.92196 14.507 -0.0516402 -0.229479 0.00825419
Na -5.65163 -14.0116 7.53439 0.336505 -0.107759 0.167287
Na -3.03014 -1.2175 6.94473 -0.263939 0.097532 0.132012
Na -0.430945 14.5269 0.188601 0.132496 -0.167036 0.202542
Na -9.11355 -5.79975 -3.90639 -0.168909 -0.372284 0.34123
Na 6.21091 -6.69087 -14.5368 0.310711 -0.0224243 0.050978
Na 7.07298 12.0418 -9.70165 0.407549 -0.00134718 -0.0322388
Na 9.4272 -9.46959 -6.63919 0.376812 0.445184 -0.0307399
Na 6.31207 -3.30309 4.24811 -0.235505 -0.335141 0.247718
Na 1.49439 -0.763454 -11.2355 -0.104242 -0.301197 -0.334368
Na 13.7828 -10.1102 2.94709 -0.493056 0.12082 0.137384
Na 11.291 12.3203 8.15434 0.248842 0.024854 -0.0801648
Na -13.5874 -6.60751 12.54 0.13255 0.258203 -0.0932125
Na -14.6382 4.11962 9.6444 -0.310228 -0.276804 0.181553
Na -4.90991 -2.60529 -10.3706 -0.177084 -0.0558041 -0.250414
Na 6.89325 -3.31731 -4.46652 0.118186 -0.0225346 -0.0679438
Na 9.71701 -11.7023 4.64929 -0.165809 -0.0471556 0.425067
Na -7.00161 -8.55211 -8.99052 -0.477228 0.728344 0.247186
Na -12.4048 7.193 3.87858 0.155753 -0.186492 0.220345
Na 9.11679 -9.30065 6.32763 -0.245117 0.050083 0.539219
Na 4.27978 14.2208 13.8869 0.0209578 -0.0366765 0.211156
Na 11.0152 9.68191 1.69165 0.0528149 0.187049 -0.146989
Na 1.08653 3.69325 6.02358 0.788168 -0.135423 0.149147
Na 3.00881 -2.8469 -3.09872 -0.204737 0.150823 -0.21356
Na -13.6088 7.7093 10.6598 -0.136542 0.328105 0.0500213
Na -3.68243 2.06205 5.03822 -0.175219 0.135341 -0.188719
Na 11.9254 -1.52548 -7.53982 -0.202531 0.109109 -0.194606
Na 10.7537 2.45042 6.02503 0.342181 -0.126916 -0.124916
Na -12.796 6.68141 -3.64499 -0.147792 0.254465 0.0520383
Na -3.25859 1.68384 -12.2071 -0.404851 -0.0466521 0.0939469
Na -7.82459 -11.6088 -1.88467 0.253448 -0.812394 -0.597467
Na -7.33693 -11.5763 6.94857 0.0234644 0.0305909 -0.339579
Na 2.3993 10.3027 -6.80295 -0.028821 -0.0304952 0.410436
Na -7.73019 0.898206 0.497202 -0.0471024 -0.396958 -0.276027
Na -14.4792 -0.751256 -1.30933 0.179999 0.816354 -0.0586752
Na -10.3927 1.104 1.83263 0.377513 -0.185129 0.157862
Na -10.2683 -13.419 12.5182 0.169207 0.238804 0.143683
Na 2.48746 10.8973 4.91457 -0.185585 0.475745 -0.309503
Na -1.97634 12.2097 13.8529 -0.0420153 -0.0928228 0.319582
Na 5.22671 11.8785 12.0822 -0.281349 0.199413 -0.649356
Na 2.69127 -7.94636 -2.08026 0.144871 -0.194347 -0.12323
Na 2.07486 -7.67417 10.1314 0.108345 -0.231 0.340469
Na -9.10995 6.0849 3.48245 -0.247986 -0.257485 -0.0718143
Na -12.723 -12.8298 -14.5755 0.101938 0.0962459 0.465488
Na 12.5379 -2.74393 -2.18395 -0.0420286 0.383923 0.137424
Na 3.07523 -4.21184 -9.25209 0.0853762 0.187486 -0.123207
Na 2.11355 -10.1746 3.43308 -0.636936 0.707689 0.316552
Na -10.394 -5.77087 -10.9383 0.2333 0.741067 -0.490582
Na 2.45405 14.2167 4.99493 -0.160933 -0.2311 -0.151505
Na -9.86827 9.25775 -3.32763 0.119832 0.14953 -0.411444
Na -7.75055 13.4065 13.0672 -0.962747 0.108155 0.33414
Na -5.72148 11.6354 11.3449 -0.132543 -0.112776 -0.618743
Na -9.52463 -13.2208 0.264502 0.189449 -0.516466 -0.136325
Na 0.484257 -10.6576 10.0368 0.183964 0.214871 0.088559
Na 8.16137 -0.580285 2.35191 0.387963 0.315824 0.0174096
Na 0.0841519 2.53971 3.02015 -0.564371 -0.0588457 -0.265869
Na 1.3874 8.15055 -0.669462 -0.59733 -0.323269 0.477872
Na 12.8093 -8.60936 11.953 0.192918 -0.250749 -0.0466638
Na -7.32995 6.95497 -5.51216 -0.0142764 -0.206796 -0.63052
Na -3.21312 -3.942 -5.89297 -0.030394 -0.0615803 0.0924175
Na 5.28763 -2.96312 -1.06995 -0.125656 0.125157 -0.156448
Na -8.14783 -11.1801 -5.63263 0.785183 -0.430122 -0.343855
Na -6.74852 10.9413 -14.6018 -0.10824 0.0574147 0.0125864
Na -1.73354 4.58769 4.27047 -0.0658622 0.373175 0.0694771
Na -3.21997 0.779856 13.3716 -0.0690142 0.0821522 -0.202483
Na -5.70428 7.65305 -11.7475 0.450946 -0.213125 -0.302912
Na 2.22951 -13.4378 8.57456 0.0617044 0.314156 0.147144
Na -7.91799 11.9363 -8.9265 -0.274957 -0.0414717 -0.00630734
O 4.49929 14.5274 6.1751 0.25788 -0.805082 -0.0325973
O 11.9611 5.76891 -13.5254 -0.542816 0.83699 -0.478709
O -8.73325 -13.9481 -10.762 -0.359248 0.0475271 -0.262392
O -12.3587 -9.44977 14.2387 -0.711078 0.46687 0.616929
O -3.09616 -11.4901 -7.10793 -1.25983 0.11606 0.675932
O -7.23781 0.698579 -5.34698 0.773702 -0.667539 0.135772
O 1.44138 -1.52231 -14.3346 0.295327 0.0619849 0.434112
O -7.95109 -11.4438 -14.1671 -0.694204 -0.799359 -0.179527
O -5.41653 9.32628 12.1264 -0.383222 0.292316 -0.161363
O 1.84715 1.21109 -10.3508 -0.0931184 -0.730691 0.0998768
O -0.545084 -6.40828 1.72311 -0.174421 -0.854472 0.35283
O 13.5084 -0.791193 -3.28098 -0.875941 -0.286481 0.236095
O 6.2772 11.9196 -4.22963 -1.98414 -0.423932 -0.430226
O -0.770932 10.9292 6.81351 0.672317 0.327515 -0.161817
O 4.42936 -5.75741 -10.2508 -0.522188 -0.543922 -1.72073
O 5.27507 0.70054 -6.91976 0.862228 -2.00443 0.882766
O -9.56362 1.94219 -6.49774 -2.30137 -0.655356 1.5862
O 6.04203 -6.45983 -3.63225 1.16487 -0.0186877 0.0378997
O -10.1432 4.97397 -0.236004 -0.494647 0.1488 -0.412119
O 10.3491 2.36933 -12.0278 -0.709101 -0.21139 -0.484802
O 4.58341 -5.12576 -5.47539 -0.116905 0.887698 -0.121184
O 12.818 -12.9286 9.63167 -0.767687 -1.14153 0.00743142
O 12.1087 11.5979 -8.29753 0.839629 -0.196581 0.651197
O -11.2609 -6.30609 4.10821 -0.220593 0.226626 0.103961
O 14.6324 -12.5432 -8.14875 0.0478107 0.428111 -0.733362
O 5.73773 3.05204 2.75889 0.00250262 1.06387 1.52748
O -6.56079 -6.79442 -10.5517 -0.217454 0.490946 -0.28161
O 13.7809 14.1754 12.0166 -0.320467 0.310188 -0.265768
O 7.84314 10.637 -6.08515 -0.0840628 0.294496 0.675266
O -12.6221 -11.7196 -4.65848 -0.387271 -0.17309 0.283382
O -14.0607 12.6461 -2.63208 -0.968737 -1.32361 -0.932379
O 9.13738 12.2778 13.4042 -2.24192 -3.16487 1.27217
O -1.18206 -11.0938 7.52872 -0.491745 -0.532893 0.18418
O 14.4865 -10.3275 -14.5811 0.0784465 0.0513307 -0.232043
O 6.01901 5.53287 -9.71819 -1.80858 0.0846836 -0.414031
O 14.0398 -2.57576 -5.38636 -0.122777 -0.239305 0.216665
O -9.15019 3.33834 -11.3286 0.336608 -0.903255 -1.38474
O 7.88497 13.3262 -5.8745 0.114626 0.206139 0.232889
O 3.06853 5.5032 -4.12639 -0.940965 -0.498908 -0.320801
O 7.04489 -3.46945 12.647 -1.59103 0.480945 -1.88277
O -10.0901 -5.29476 -14.1356 0.463018 -1.12485 0.571396
O 9.38492 13.9544 11.5591 -0.633815 1.13477 0.178192
O -7.16418 -4.75663 3.57633 -0.182328 0.114045 -0.0359635
O 1.89044 4.64334 10.2807 0.0362526 0.2879 -0.0811289
O -0.894117 12.3053 4.50857 -0.0406743 -0.916621 -0.110109
O 11.3328 -1.79507 11.7332 0.626006 -0.590029 0.301986
O 2.48418 -14.361 -2.00228 -0.361728 -0.789765 -0.699762
O -1.17341 -1.9198 -13.3153 -0.745342 0.00303292 0.909364
O -4.04583 12.082 -14.0831 0.0590731 0.376472 0.0237821
O -0.227413 5.97075 -12.7402 -0.191459 1.8548 0.436005
O -14.3236 -7.70205 -14.3295 1.92923 -1.939 -0.993769
O 13.155 -11.4285 6.78224 0.308538 -0.0527646 0.392406
O -5.65408 4.52304 -11.9581 0.0145146 -0.0753102 -0.045528
O -2.25393 2.71514 3.0332 -0.198186 0.848088 0.387251
O 4.76099 -13.675 1.17851 0.0664032 -0.055754 0.685507
O -13.8759 8.1694 2.14057 -0.0392141 -0.486986 0.0350352
O 3.06266 -2.75016 9.41842 -0.173435 -0.584628 -0.623798
O -9.33367 8.99197 12.8702 -0.397987 -0.319522 -0.877779
O 5.8828 -5.46971 -12.6627 -0.421832 -0.0810647 0.494946
O -12.4893 -11.4162 -9.51677 0.035337 0.0403515 0.497976
O -14.6294 -6.70335 -8.01349 0.243169 0.892982 0.12549
O 14.0954 12.4359 -13.3916 0.569432 -0.324171 -0.122602
O -13.939 -9.34597 -4.95258 -0.145494 -0.922169 -0.241573
O 3.36325 13.208 12.0398 1.10217 -0.189665 1.09138
O -7.18444 -3.92185 -7.99528 -0.207267 -1.3665 -0.31344
O 11.8383 -12.7403 -1.83535 0.689156 0.779431 0.27987
O 9.03337 0.132973 -11.1375 0.352324 -0.233743 0.667718
O 2.93515 3.12831 -5.23313 -0.301778 -0.299852 -0.235437
O -7.58842 6.91625 9.24648 -0.662491 0.630088 -0.434474
O -0.707918 8.70481 13.1428 0.437363 -0.626685 -0.123617
O 12.8634 3.91494 -14.5398 -0.370113 -0.203937 -0.534942
O -6.82057 6.01413 -1.68176 0.935248 0.308152 -0.0510659
O 0.133484 -0.301501 -3.21256 -0.112727 -0.418548 0.267289
O 6.91487 -6.6049 -9.82509 -0.127914 -0.763984 0.209376
O 8.34796 -5.52884 14.5577 -0.666204 0.155299 -0.417123
O -11.3942 -3.54634 -12.7427 -1.34111 0.612266 2.00709
O -13.5228 4.02511 -7.89966 1.2222 0.339968 1.44825
O -0.250895 -8.64736 6.82186 -0.89552 0.703454 0.482848
O -6.35511 -10.0381 1.74881 0.031343 -1.22832 -0.0179896
O -8.65088 2.60874 -13.7772 0.487876 0.63247 0.169864
O 5.0197 4.80375 -5.88875 0.783075 0.132374 -0.283188
O -7.66848 9.45904 9.20959 0.433124 -0.0760468 -0.119823
O 2.91693 -10.5196 5.68478 -1.26478 -1.45444 -1.23607
O 12.3054 14.4065 1.3712 0.133611 -0.0804209 0.189091
O -5.52689 -6.27204 -8.11317 0.0528378 0.747988 0.238425
O 5.52586 0.750459 -1.58664 0.0998252 1.01619 -0.593643
O -12.2879 13.7437 5.95516 -0.62957 -0.313451 0.208037
O -7.57869 -6.20148 -6.45893 0.426003 0.257381 0.0969511
O 4.48181 12.4226 -8.15299 0.970159 0.446588 0.428955
O 10.233 12.9409 -7.16761 0.846498 0.322739 -0.481823
O -4.22999 -9.35352 8.96901 -0.399868 0.451643 0.0351762
O 6.96964 8.7686 7.7592 -0.45778 -0.575084 -0.177758
O -4.43019 3.77974 1.84783 -0.334501 0.915172 -0.325341
O 5.99639 -10.9118 3.39266 -0.786006 -0.314833 -0.168135
O 8.32589 -8.25605 -14.5013 0.415916 1.06 -0.0227391
O 3.1161 3.96187 -0.044795 0.0872688 -0.533801 -0.406076
O -14.6272 10.1696 9.07321 -0.500343 -1.36234 -1.72319
O 10.5734 6.44248 -1.09689 0.349699 -1.17198 -0.901922
O -2.86342 6.45036 -11.7844 0.405165 -0.258975 -1.82613
O 10.3992 -2.59539 9.17353 -0.200498 -0.305528 0.538084
O -0.736096 5.1564 10.2048 0.475495 -0.228133 -0.611941
O 3.45801 3.26853 5.92077 0.239974 0.0756882 0.72611
O -3.40898 -3.07448 -11.9845 0.163664 -0.21775 -0.269878
O -2.77363 6.44246 -8.25529 1.03503 -1.59221 -0.906536
O -4.66466 -11.6878 10.4718 -0.260318 0.664107 -0.0513241
O 13.0884 8.58397 13.3779 0.709552 -1.24261 -0.423947
O -4.43323 12.7777 4.67679 0.76142 -0.185908 -0.419083
O 1.86529 -6.29005 13.7097 -0.199177 0.294108 -0.314767
O 11.4814 1.13774 -3.45469 0.209762 -0.622565 -0.509562
O -9.10141 -0.965719 13.0955 0.872853 0.390845 0.399611
O -9.43351 -7.76123 -5.31521 -0.393745 -0.156341 1.15739
O 11.3385 -13.2891 3.26219 -0.219105 0.0208111 0.0332862
O 11.6827 -4.98741 12.5387 0.297453 0.676187 0.640021
O -13.8654 10.9901 -4.58408 -1.08506 0.704926 0.446501
O -11.1847 5.26668 2.06163 -1.55446 -0.582105 1.69032
O 4.12309 -4.35097 0.471184 -0.896526 0.486971 0.557234
O 1.49377 3.47117 12.64 -0.19758 -0.418874 0.0625361
O 2.77578 8.02853 13.7968 0.616715 0.206953 0.404024
O 10.1934 -11.4917 -11.279 0.205357 -0.202254 -0.199882
O -8.23078 13.7367 -5.65974 0.409806 -1.29252 1.18927
O 5.76792 1.48302 10.3966 0.599322 -0.307243 -0.520895
O 13.8846 -1.82543 8.17235 -0.3018 0.393634 -0.49153
O -3.90322 14.1143 -9.37945 0.197088 0.290835 -0.450996
O 10.9615 -7.25757 11.2205 0.241377 -0.288206 0.459423
O -4.58755 5.97932 -10.1551 0.00856483 -0.128507 0.997537
O 12.834 1.74911 -11.8612 1.54997 -0.592676 -0.498094
O -8.05213 -13.7029 13.3373 -0.482011 -0.132811 -0.456705
O -4.58047 -9.25575 -0.241839 0.263464 -0.691924 0.482613
O 9.75782 0.419186 -13.7631 -0.296094 -0.174651 -0.50175
O 14.4748 1.831 -13.9183 -1.32631 -1.80648 0.496166
O 4.58027 6.64945 -14.36 -0.618709 0.408285 0.689804
O -11.3212 -9.61814 -11.1652 -0.107565 -0.121727 -0.657413
O 0.835315 -6.71857 7.96349 0.055994 0.947076 0.568599
O -14.2217 2.59544 -10.0475 0.0116144 -0.139084 -0.105763
O -14.5172 -10.3421 -2.58619 -0.302107 -1.40833 0.618128
O -11.134 9.6842 -1.2272 0.314494 0.709101 0.984062
O 8.1771 -13.1235 -11.228 0.391621 0.929206 -0.418353
O 1.11971 -13.7449 -6.85228 -0.613862 -0.598465 -0.834599
O -12.7064 -0.319971 -2.62899 0.472004 -0.610936 0.474167
O 12.0915 11.6737 5.65063 -0.766469 -1.04094 -0.39971
O 5.08814 8.72047 9.59757 0.973436 0.844235 -1.31777
O 1.50733 9.96467 -2.514 -2.55944 1.36212 -0.0583854
O -0.448766 -3.80006 0.97984 -0.126692 0.332731 -0.160151
O -13.8533 -3.13968 12.66 0.0683734 -0.49848 -0.2155
O 11.9436 -8.23034 -0.290284 -0.0713708 0.407926 -0.415857
O -2.55531 0.295977 -13.9632 -0.3076 0.669171 -0.429003
O 1.09346 -6.38254 -3.37965 0.0456098 -0.202293 -1.00251
O 7.84494 2.1331 7.2009 -0.0262228 0.00877668 -0.200037
O 6.42179 1.96454 5.01379 -0.136629 0.701792 -0.166489
O -8.88819 -11.4452 8.7752 -0.194358 0.678896 -0.661479
O -3.0602 -10.0963 4.78011 1.10721 0.540458 -1.38883
O -6.55619 -9.84262 9.41049 0.187578 -0.175872 -0.0456425
O -4.61679 -9.71305 -11.8539 -0.523878 0.261575 -0.735545
O 7.87547 4.13979 4.14222 -0.390725 -1.18087 -0.271705
O 5.69562 2.95456 12.623 0.618256 0.494432 0.249039
O -4.14558 -3.06136 10.2249 -0.661313 -0.739944 0.154996
O -7.5937 12.7199 0.964359 -1.21519 -1.74843 -0.350458
O 12.1317 11.8242 1.05144 -0.00255036 0.0739763 0.98994
O -3.36705 -0.935678 11.5796 0.0418269 0.801493 0.195486
O -11.9738 -6.08366 -3.45809 0.173894 0.625107 -0.36636
O -10.243 13.846 -12.5726 -0.713517 0.102447 0.202682
O 7.20364 -10.9258 -4.03933 -0.240545 -1.043 0.603648
O 11.6295 14.2124 5.26614 0.648974 -0.21953 -0.637619
O 11.3079 -9.30207 -11.2376 0.588204 -0.228446 0.558651
O 1.38502 12.5297 -1.91254 0.137227 1.10183 -1.10853
O 1.25681 -1.56572 4.32624 1.16767 -0.387419 -1.10421
O -0.915111 10.9682 -1.52122 2.43621 -0.932253 0.326615
O -12.8041 2.98788 -1.33219 0.328658 0.132355 1.15111
O -13.9054 -0.627488 5.78398 -0.183352 0.989667 0.59403
O 5.07674 -8.19219 -8.77839 0.29173 1.39138 0.667917
O -6.6455 -3.85868 -12.5533 -0.716123 -0.224914 -0.90079
O -2.55444 -0.872762 9.02901 0.644295 -0.496706 -1.01504
O -10.6423 -12.2964 -13.599 0.204584 0.147032 0.228498
O 6.65607 6.00092 0.244545 0.148412 -0.955537 -0.583604
O 5.90514 -8.39789 8.79504 0.794964 0.996602 -0.459305
O 10.0259 -11.5839 -8.09198 -1.42808 -1.17607 -0.161882
O 5.34935 9.41517 -4.97394 0.0602036 1.71088 0.236872
O 13.4656 7.84483 9.21239 0.457984 0.96716 -0.209238
O 14.4034 -0.450871 -12.4565 -0.685421 1.20595 -0.302936
O 6.1586 9.95739 5.74303 -0.348209 0.171422 0.0251044
O -11.5545 7.14167 -0.0358807 -0.316094 0.184265 0.619112
O -10.8123 -3.75062 7.80018 -0.511664 -1.03889 -1.16525
O -3.56051 -13.1972 -14.0317 -0.218349 0.156674 0.771813
O -7.13492 -8.93713 -6.25947 -0.565139 0.56669 -0.279456
O -9.67302 -4.69501 -7.89285 -1.03478 -0.568274 0.921442
O 8.69193 -1.83244 -4.03113 -0.433114 -0.0565274 -1.64113
O 12.2593 -10.9747 -9.53842 -0.293041 0.549451 -0.155478
O 10.6989 12.966 -9.87815 -0.821538 -0.563633 -2.77058
O -12.917 7.42103 -8.06526 -0.603803 0.015447 1.76869
O 10.5235 0.00913681 2.25183 -0.517719 -0.23818 -0.526711
O 8.79771 -2.91945 -13.4723 -1.37712 1.00014 1.55329
O 1.70837 -5.33847 1.14474 1.81744 0.106632 -1.10569
O -4.36705 3.9756 -7.62485 -1.33082 0.671786 -0.400569
O -3.45763 13.8149 13.2757 0.730223 -0.0517355 -0.590292
O 14.0106 -4.36268 9.04649 0.475755 0.626189 0.241076
O 10.7941 -11.7195 11.1288 2.54439 0.289662 -1.89372
O -9.20615 -10.2656 -12.5514 -0.92801 1.77382 1.66167
O 7.23086 -2.35018 7.45292 -0.416023 -0.385816 -0.428557
O 12.1903 -13.3938 -13.8264 -0.00151278 -0.208086 -0.589353
O 9.66114 5.98425 14.0767 -0.10756 -0.670869 -0.276153
O 11.1394 9.42162 -6.95044 -0.297611 -0.76322 -0.107054
O 6.67019 5.18689 -14.1086 1.21159 -1.30038 -0.201752
O 1.67521 -11.4012 -14.2855 0.802783 0.633476 0.796527
O 1.36573 6.99875 2.77617 0.337747 0.192835 1.16335
O -8.79166 -10.2939 2.05594 -1.2317 -0.990863 0.323293
O -5.84512 12.4673 13.3062 0.628944 -0.00968164 0.298709
O 12.5682 -6.27871 8.17836 -0.675477 -0.149506 -0.452745
O 13.3935 -7.80814 -6.16337 -0.561544 -0.103805 0.154103
O -3.35501 1.55078 -8.29096 -0.0170276 0.787376 -0.826794
O -10.923 -1.37063 8.94656 -0.879846 -0.206649 0.597729
O 12.0282 -10.0127 -7.11505 0.507979 0.341709 0.766608
O 8.91953 -0.0526708 -6.13824 0.38015 0.053065 -0.36537
O 10.7737 -8.23831 2.01293 -1.04601 -0.0997437 0.70737
O -0.022008 -0.7105 6.65986 0.917789 0.31505 0.694634
O -11.7763 14.0352 9.28946 -0.956044 -1.46229 -0.20586
O -6.45189 14.5006 -9.54709 -1.17902 0.520653 -0.046459
O 0.328236 -10.0871 -12.6416 -0.322887 0.476034 0.355863
O 5.37956 9.39727 14.1091 -1.67876 0.676215 -0.0713635
O 9.01282 -6.82235 5.58898 -1.42421 0.00311241 -0.75416
O -7.77492 7.88278 -10.9932 -0.624955 -0.989967 -0.629631
O 0.758 13.1803 11.376 -0.31506 0.25638 -0.806793
O 4.52003 -13.0091 8.11386 -0.975594 -0.784807 -1.15011
O -13.611 -11.5065 6.12566 1.41076 1.20143 -0.220862
O 4.77942 -2.33449 11.4554 0.424005 -0.42054 -0.314472
O -3.34937 7.71897 -4.62474 -1.35127 0.504439 0.124975
O -0.869522 8.15229 -3.48345 1.29043 -0.747447 -0.558389
O 1.64113 -1.19582 -7.2806 -0.607075 0.325093 -0.371839
O -4.83454 2.87441 -3.52623 0.200466 0.196654 1.11212
O -3.89828 -3.35907 12.8519 -0.0438165 0.404494 -0.28537
O 1.82484 -1.48476 12.3531 1.09434 0.871007 0.14756
O -10.0759 2.49984 13.4591 0.385584 0.298232 -0.202681
O 10.9158 -1.82677 -14.6583 0.658225 1.61736 -0.22311
O -12.766 -5.526 -13.8043 1.12781 0.791605 0.0858026
O -4.24853 0.951979 10.0838 -0.117411 -0.284258 -0.442035
O 11.6302 -6.56086 -11.0944 -0.736951 -0.39164 0.022661
O 10.7025 13.47 2.95803 -1.71554 -0.159157 0.672817
O -13.2706 6.03753 9.27579 -0.619202 0.0810823 -0.800867
O 9.19541 5.12844 11.5302 0.665144 -0.671095 1.39683
O 0.320906 14.2165 3.20895 -0.758621 -0.519664 -0.988163
O 7.88302 8.37876 0.0339462 -0.481236 -0.0355885 -0.637006
O 1.65759 -5.90219 -6.00108 -0.549182 0.156406 0.107699
O -5.32051 -3.24792 -3.65911 -0.202369 0.327955 0.364711
O -13.2617 -12.4391 3.43527 -0.464749 -0.245438 -0.351472
O 10.5604 7.70352 -10.7054 1.10483 0.323095 1.55959
O -2.06154 -0.539847 -11.4822 -0.170055 -1.35285 -0.315114
O -13.2378 5.02008 3.70089 -0.117752 -0.0473588 -0.00906676
O -11.527 3.36299 -10.1852 -0.0372291 0.310998 0.111419
O -0.65047 -12.9913 1.49213 0.216038 1.10797 0.0580282
O 6.06471 -0.0069192 -13.6197 0.489901 1.23432 0.144171
O -13.2856 -4.80516 -11.0807 -0.275801 -1.02634 -1.27419
O -5.65275 2.68738 6.59577 -0.354012 -0.964527 -0.985581
O 2.73502 -8.15436 -5.17782 -0.52056 0.270368 0.140476
O -1.85622 12.6507 -3.14351 0.422482 0.337877 -1.18172
O -2.34429 14.345 3.62495 -0.538946 0.370453 -0.236409
O 6.72506 -5.95728 12.7682 0.88301 1.07155 -0.506912
O 0.365154 9.39021 8.77206 -0.480948 0.0529213 -0.0364261
O 9.20675 -5.41944 11.8366 -1.56847 0.522017 0.597309
O 8.35408 5.50772 -8.25934 -0.659072 0.773688 -0.184748