300
Lattice="16.5523 0 0 0 16.5523 0 0 0 16.5523" Properties=species:S:1:pos:R:3:force:R:3 energy=-1257.66 pbc="T T T"
Si -5.09185 -1.89847 3.14878 5.01982 10.5324 -9.43841
Si -7.57798 4.32804 -6.89921 0.720061 -1.00875 1.91969
Si -1.01992 -8.10925 4.39307 1.1805 -0.281965 -2.13947
Si 4.67328 8.03143 6.09554 10.7386 16.1464 18.6016
Si -5.65823 -5.15253 0.292925 1.92507 -1.26013 0.265104
Si -6.22165 -3.77001 -5.15495 -7.54939 -10.126 -7.11768
Si -0.911169 0.705576 3.10334 -0.466151 0.973504 -3.44875
Si -3.30482 -2.90957 0.946419 7.23986 2.10365 6.61402
Si -4.08523 8.05439 -4.0943 -9.70838 106.648 -107.764
Si -6.42855 -0.470576 -7.25365 0.475777 3.76926 4.27736
Si -3.08956 -0.436984 4.22723 -0.07193 -0.104314 -0.429514
Si 1.76224 -6.48239 7.67772 0.574263 -3.90493 3.60396
Si -0.979294 1.25361 -4.83037 3.52478 8.13821 -5.86262
Si 2.24681 3.87904 -6.93336 -2.71093 4.65569 2.73932
Si -4.98782 -4.12137 2.50204 -0.466211 -3.95386 -0.970732
Si 3.57248 -4.34361 2.46431 -3.977 9.14349 -15.4208
Si -1.05366 -4.58285 6.09843 0.642365 4.1681 -2.14451
Si -7.59282 7.21073 -2.28944 -1.27312 6.00779 -4.32083
Si -7.0319 5.84091 -0.988839 -4.26444 -12.2254 -10.1613
Si 8.25907 6.09234 1.51909 10.5095 -6.24914 -14.5882
Si 0.0942295 4.65781 2.52919 9.29357 9.04565 14.1787
Si 6.89678 -7.78968 5.90159 0.893176 2.47199 -0.891336
Si 5.86514 3.90185 1.88592 0.69164 19.2065 -18.8244
Si -7.99187 -4.34387 2.94127 10.5405 -6.16104 6.9705
Si 6.07326 6.37991 2.52109 -2.70528 -0.66488 3.35297
Si -4.1336 1.29587 -6.6402 0.943341 -0.354102 0.137878
Si 4.66899 -8.15749 -5.68298 -39.112 7.62887 -10.3543
Si 5.979 -5.45671 -2.53556 107.969 12.0596 -171.474
Si -5.4042 -3.18697 4.30891 -3.5598 -10.68 13.2011
Si -3.26274 -4.24868 -1.87221 7.05131 -10.9493 21.9931
Si 7.67971 -6.02691 2.16127 -2.21165 -4.32047 -1.88506
Si -4.71132 -1.37262 7.6494 8.62874 4.33996 -4.76192
Si 3.96459 3.08862 8.2394 7.96668 3.2756 0.656086
Si 5.08617 3.48915 -2.75612 -0.0440564 -2.32463 1.29654
Si 0.0326073 7.10245 -0.271428 1.39283 -4.76194 -3.43801
Si 1.02391 7.65758 -7.08017 -0.0276065 -23.074 -2.0391
Si 2.59699 -0.729468 4.55678 -0.433687 1.65162 0.307641
Si -2.43936 4.46633 7.68116 4.53144 -4.60589 0.493084
Si 6.84442 -5.65161 -6.1813 -3.55569 3.11056 -0.841541
Si -3.88665 -3.53445 -3.3067 -10.3017 10.0401 -17.6372
Si -4.53382 5.26471 -1.45076 -36.7166 22.2952 -19.2617
Si -6.2672 -2.3904 -8.22285 -6.04199 -8.09709 0.264897
Si -6.96436 1.09068 4.2444 10.9165 10.0324 -10.2424
Si -1.8208 -5.86323 -4.77039 -6.89563 7.61478 17.6162
Si -4.20292 6.2334 -6.33232 -21.4155 2.76461 6.54909
Si -1.54056 7.89101 7.9816 7.1733 2.88217 -2.82374
Si -3.11467 0.508891 -4.08424 -1.39292 7.00652 -1.08495
Si 7.2782 3.48934 -5.32309 -1.53706 -3.05649 -1.58754
Si 8.27572 -7.02438 -5.59578 -14.7226 2.05339 0.735889
Si 5.07642 -0.165613 -0.90555 -2.28709 -0.261669 -2.9165
Si 6.28065 -2.51601 0.474875 0.178013 4.10973 -5.61898
Si -3.37074 7.64268 2.91814 -2.29488 0.316554 4.27093
Si 1.74888 7.97349 4.43287 -1.286 0.64145 -1.66194
Si 3.89814 6.28468 -5.82574 7.60668 6.89523 4.65757
Si -4.39667 -7.66979 7.53995 1.04007 -1.62367 1.20122
Si 7.51309 0.188155 7.22003 -4.62768 5.27941 -6.47448
Si -6.22284 -0.0515639 2.83474 1.10371 -1.30426 -9.71084
Si -2.59638 1.84949 -0.115476 -6.61673 -10.7979 1.99035
Si 7.51323 -3.037 2.22321 -3.20556 11.2114 -2.12358
Si 7.9524 6.97439 7.5768 17.3521 -9.8144 1.21812
Si 1.85944 3.08873 5.33386 0.826881 0.156696 1.14169
Si 1.07618 -5.96691 5.76561 -4.23274 2.3618 -5.61661
Si -4.82324 0.086737 -0.152607 5.88537 3.03675 4.92743
Si -2.21643 7.03468 -6.27033 17.8532 17.9226 -1.39309
Si 6.92286 7.92115 0.316452 -0.432548 1.00763 -0.219547
Si 3.05032 1.97451 2.55439 17.6902 1.62243 9.59905
Si 5.64128 -0.242662 7.47215 -16.3069 -19.2922 2.52086
Si 0.0686842 4.26512 -2.98247 1.09221 4.21125 1.6368
Si 1.14838 -7.91953 0.740228 -0.527355 3.09841 0.911879
Si 2.14552 2.2796 8.06724 -7.02163 -4.91925 -1.40255
Si -6.27241 2.69891 5.67939 4.19005 3.86923 0.760135
Si 4.35913 -0.662363 2.637 -0.486073 0.182652 9.59933e-05
Si 5.55511 -4.31913 6.84921 -2.28852 -1.60224 -0.941139
Si 8.17141 6.79917 -4.76368 -1.3114 0.469789 -1.40558
Si -6.08911 0.530856 -1.62753 -6.96354 2.78545 -9.49848
Si 4.5002 -7.45706 1.50599 10.2473 -2.03266 8.13667
Si -1.82749 -1.09168 -5.42135 4.96137 -5.69419 -6.24669
Si 6.35549 -4.79631 0.641714 1.1039 -1.33194 1.37137
Si -2.24326 -6.47907 5.52285 -3.21724 -1.02536 0.500579
Si 7.00704 8.27184 8.19293 -10.1871 16.6108 9.77042
Si 2.65127 -0.45107 -2.58241 18.3532 -0.542783 -13.6016
Si -7.95803 2.44643 1.22823 1.0124 0.937688 -2.32479
Si 2.44936 6.05065 6.26203 0.214376 -0.956165 -0.0665792
Si -1.68196 3.54787 -0.380024 4.24949 12.5536 0.344026
Si 6.42212 5.26795 6.0657 -12.3806 -10.7901 -10.0838
Si 7.91208 0.718496 5.48091 -22.3898 4.37805 -9.24476
Si -7.36152 8.1227 3.38467 2.26921 -1.61927 -0.711369
Si -1.22324 -4.08105 1.9148 0.780451 -0.604564 0.878133
Si -0.310565 -4.40956 -0.670982 1.38413 1.39554 -1.1556
Si -5.18144 -6.84099 2.12613 -0.470327 -0.950467 -2.22559
Si 0.344918 0.485976 -1.73862 -5.20624 1.69756 0.493244
Si 6.5445 0.0664133 0.58183 0.253693 6.37143 2.5686
Si -2.62543 -1.0208 -2.65383 0.0395547 0.515176 4.09307
Si 1.77028 -0.733785 -7.48505 -6.20078 -4.35288 0.940496
Si 7.90081 -2.18367 -2.23665 1.34293 4.50577 0.681417
Si -5.92652 6.66774 0.300504 8.03713 6.88927 9.38957
Si -2.89884 -4.65655 8.13151 -0.278486 3.26055 0.463672
Si 7.5782 -2.28904 -7.98264 -20.1065 13.2804 -10.4604
Si -5.99142 -7.08019 6.03447 -3.5802 0.953195 -2.47375
Si -5.01721 -6.75531 -4.05753 -6.69778 8.91316 0.638561
O -1.9774 -6.90782 7.35854 -0.742583 -0.343999 -0.549522
O -8.11822 -2.8688 -7.20023 17.4518 -10.3536 14.7948
O 7.02155 6.61454 4.45353 -0.703277 -1.62726 2.59142
O -1.1637 -6.91904 -3.58065 0.774698 -0.234271 2.64906
O -3.78611 -4.73609 5.44915 0.779312 0.00565537 -1.51167
O 6.57977 1.92501 1.53657 3.11718 -1.68624 -0.752577
O -6.51164 2.89321 5.93605 -0.633219 1.41617 0.295261
O -1.72278 -7.06844 2.42688 -1.19845 -1.9607 -0.47014
O 1.81556 2.34331 -4.66403 1.49762 -8.26336 1.07734
O -3.66303 4.67938 -0.73331 18.1179 -14.1783 14.6208
O 4.82283 -4.59342 -3.76338 -0.717679 -0.640583 -1.14064
O -3.4845 -5.04147 0.155796 -2.23422 -0.886488 -0.469569
O -3.02105 6.98744 0.182519 0.0770803 1.01758 1.95984
O -3.36671 -7.31206 4.15399 2.05494 -1.64106 -0.38414
O 6.45473 -5.47551 -1.62851 35.4401 -2.01029 74.8672
O 8.24318 3.48485 5.04067 0.836805 0.309605 0.714818
O 3.39896 -2.88924 1.91114 -0.237419 0.673828 -0.292969
O -4.2652 -0.359034 -3.6161 -1.39789 -3.21803 2.40654
O 1.9254 1.04157 5.25466 -1.79642 -1.49289 -1.80817
O 5.49936 -5.69533 4.26302 1.42157 -0.889922 -0.13645
O -0.455731 1.43293 1.34137 -3.31263 -3.29349 4.70716
O -6.30043 0.385427 6.24945 11.2837 -2.08572 8.22683
O 5.91368 -3.47646 1.73489 -2.1991 -1.31965 3.86287
O 0.316507 6.56934 7.72995 -1.61602 3.98404 1.4209
O -1.04186 5.16143 4.87412 0.781153 1.50979 -1.74011
O -4.66519 -0.184442 6.35187 -0.739399 -1.59353 -0.48551
O -6.62402 4.59252 4.5747 0.987472 -2.92417 1.17163
O 5.19103 -6.06291 -0.642787 -0.535038 -2.63211 1.87321
O 7.22958 6.15631 6.68677 7.4381 3.07132 3.76167
O 6.93022 8.26079 -1.1797 -0.626168 3.6448 -6.03418
O 0.383994 -7.20202 3.40379 0.469519 0.686372 2.85526
O 3.35582 5.17641 -2.73805 0.837536 -0.509886 -1.33824
O 7.50015 -1.02767 1.09012 1.02673 -3.47829 0.0624007
O 5.86719 7.22385 4.9063 5.21341 2.10225 -1.37153
O -3.0589 -0.837192 7.57423 -0.175168 1.3644 0.110579
O -2.45521 -2.46218 -8.02234 1.94618 -1.97842 1.7265
O 1.81056 6.7256 -0.84351 -0.976751 1.49181 3.52578
O 1.93037 -4.87065 -2.49952 0.48285 0.335251 1.59511
O -2.28055 -2.45431 6.74505 0.628168 -0.654362 -0.614304
O 3.0638 6.0205 0.539997 -1.6304 1.12433 -1.44692
O 2.87849 5.38342 -6.10302 -6.65606 -11.3008 -3.85013
O 0.0625973 -7.52394 7.81555 0.578855 -0.862183 -0.873849
O -0.0846983 6.26897 3.99947 -1.71694 -1.8963 1.29762
O -4.73566 -5.79816 -2.80864 1.39065 0.0475903 0.459806
O 2.5726 -5.61399 5.84573 3.18562 -1.76042 3.16878
O -7.39758 -7.3679 -0.0288887 -0.621378 -0.812523 -1.18521
O 6.24316 -4.22361 -6.79497 1.22642 -1.21472 -0.357751
O -4.55158 2.80233 0.8751 3.55322 -1.90838 -0.876452
O -2.60966 6.26957 4.80119 -0.820894 -1.01004 0.732718
O 1.51024 -5.87351 3.29437 -1.51163 -1.39035 0.490923
O 1.6527 -0.429007 -2.09919 -9.75121 -0.387637 7.88173
O -2.67808 2.14751 -3.04099 -0.332355 -1.31339 -1.78576
O 8.21729 2.10617 4.27091 -3.52553 9.49467 1.81683
O 4.01033 -3.43343 -0.715248 0.506047 2.07991 1.28496
O 4.08974 7.26032 5.23993 -19.9604 -11.6934 -16.0181
O -6.33056 -0.368239 -0.397898 -2.30403 -2.8618 -0.161152
O -3.12038 -2.9987 -0.436734 2.46774 0.695152 -14.6715
O 4.90267 5.94561 -2.72187 2.12298 0.553305 1.67083
O -8.03483 -0.39983 -2.09056 -1.10642 -3.05466 -0.503802
O 5.82606 -8.14314 -5.23376 21.7191 -2.44001 8.43952
O 1.72492 -3.48408 5.32092 -0.698291 -0.262697 -0.027402
O -7.32815 0.483721 5.60761 12.0127 -14.2522 -3.76283
O -0.268302 0.00523161 -6.05188 1.64386 0.253024 -2.75921
O 0.0995595 -6.19718 -3.42842 -0.211117 -1.26016 0.457636
O 5.56287 1.89081 -6.79216 -0.0975029 1.89986 -0.152102
O 7.19996 -3.9583 5.21383 -0.329231 -0.932916 -3.77011
O -2.73382 3.01503 2.41625 -1.21804 -0.512222 -1.99351
O -6.71491 -7.95948 -1.44877 -0.0107138 -1.63186 3.3652
O 5.84947 4.34641 1.56841 -2.13879 -23.9803 18.3288
O -0.401114 6.84658 -5.1213 3.93117 -3.53837 4.20882
O -5.66513 -2.67072 -4.52136 7.42542 9.18925 6.69322
O -4.15838 -2.35256 -7.62084 -4.93857 0.629277 0.991032
O 0.305277 -2.31549 8.15639 2.31554 2.94246 1.77961
O -3.78922 5.03576 -0.498539 11.6567 -4.58503 19.5271
O -0.356797 -3.00004 -2.5613 1.36691 2.18158 0.375824
O 5.56208 7.81052 1.86447 -1.0664 1.42092 0.153089
O 4.34587 5.41383 5.19718 0.238179 -5.38689 1.66322
O -3.00471 7.56222 7.55999 -4.89046 3.56438 -2.34905
O 5.6048 -5.874 5.62668 0.0385834 0.879925 1.83456
O -6.5345 -6.3014 -6.21456 -1.523 -1.3116 3.33978
O -4.85738 6.96462 4.37217 2.26756 1.39586 -2.59309
O 1.2696 5.39049 -7.02914 -1.33591 -1.42907 -1.65166
O 5.20516 1.62719 -2.50838 -0.069141 4.02338 0.405696
O 3.91412 -7.1265 -3.35713 -0.144404 -0.0230797 -4.53446
O -1.24215 -6.43955 -5.79092 8.34878 -12.2272 -20.0721
O -8.16893 4.33165 -4.69653 1.83626 3.88591 1.42683
O 2.43486 7.80687 -5.57003 1.50516 -3.91039 -2.26675
O -7.34911 -7.42951 -5.50456 20.7504 -1.91711 0.899311
O -2.75193 -3.34591 -6.71053 1.96928 -2.40227 -1.80331
O 5.11667 -5.52303 -2.03657 -136.446 -13.8036 91.5856
O -7.04594 -3.9164 7.06143 1.44683 1.05928 2.3085
O 1.1058 7.54431 2.50131 -5.33335 0.439634 -2.50838
O 7.77891 4.47809 1.94823 2.88497 -7.23173 -1.09316
O -1.37011 -0.0538026 -4.24652 -1.32325 -4.29335 8.02252
O -2.03949 7.29175 -6.639 104.379 37.0492 -55.4492
O -6.24551 5.26878 -2.6698 -0.413834 0.770046 4.94901
O -2.12893 1.39643 -6.06614 -1.6849 1.45266 0.676982
O 3.80621 3.78897 4.77848 -1.94762 0.639362 0.566224
O 3.44758 1.68745 5.68401 4.12906 1.67659 2.12796
O 3.57484 -6.45106 -7.48563 -0.833907 -0.797317 -1.64005
O -1.48774 -2.52132 2.16915 -1.48681 -1.05589 -1.37877
O -1.52347 7.49259 -6.93635 -107.399 -38.6603 58.9597
O 5.9559 1.08265 7.55029 4.67073 13.5457 -2.03094
O -5.51093 1.41828 3.02596 -1.18442 -0.824613 3.53046
O 3.71991 -4.69858 -0.695151 -5.47583 0.0648077 3.37099
O 1.11886 -7.59328 -6.88585 1.76588 20.6187 2.54777
O 2.95525 2.27826 -0.498636 2.80456 0.322946 1.83762
O 3.75661 -4.97632 3.61926 1.83906 -7.42658 15.5415
O -5.659 -8.09737 -8.074 2.09264 1.46778 -1.82402
O 0.861481 2.43674 0.236981 1.05704 4.14898 -32.6342
O -4.06546 -4.92896 -4.89738 -36.9356 -6.28088 -13.4667
O -7.60734 -7.88886 -3.15533 -1.45414 -0.00906932 -3.00714
O 6.01433 0.20606 -4.07956 -2.79506 1.52013 -3.82291
O 3.93464 -3.72289 -1.89374 -2.42223 1.82445 -4.72357
O -4.53028 -1.17707 0.594757 2.2606 1.57847 -1.7304
O -2.55995 -2.63934 -3.09926 -0.776209 -1.02819 -0.869935
O -4.70472 2.39484 7.13465 -2.29019 0.87158 -1.7971
O 5.21038 -5.63264 -5.87974 -1.63306 0.594421 1.12329
O -0.361097 -6.68632 0.816155 3.45728 -0.938113 -1.84981
O -7.14799 6.5345 -7.98161 -5.00986 0.994348 -0.572629
O 2.3625 7.64221 2.74902 7.2413 1.89465 2.83835
O 2.83278 0.278674 -7.80413 3.33693 2.38407 -2.54786
O -4.53392 -2.57356 1.69358 -6.54676 -4.95796 9.35424
O -2.11563 1.14801 -1.99244 -0.0745913 -0.432502 2.69906
O 0.490746 4.34324 6.49316 1.29357 -3.02581 -1.0451
O 5.43519 -6.51846 2.9978 0.270902 -0.730207 -1.35565
O 0.323112 5.37472 -1.54162 -1.74699 -1.71672 -1.84107
O 8.25226 0.570663 3.55682 -3.35335 -7.83418 -4.73171
O -7.98476 -6.70241 -2.54081 2.18621 4.21586 0.355815
O -3.04168 5.80431 7.96741 -1.87039 1.69591 -4.8321
O -3.72075 5.32802 1.34185 -0.474149 1.67576 2.85097
O -2.3823 -0.716988 1.01145 -0.267921 0.497504 -0.483065
O 7.90164 -0.331526 -8.19215 7.57942 -12.0686 19.1706
O 6.71989 -6.69879 -4.17049 3.39624 2.72473 -2.25289
O 7.06691 4.13785 -7.52637 1.8286 -0.862104 0.703434
O -5.29634 5.82317 7.6002 -2.1127 -1.67309 0.550822
O -7.15382 3.5473 -0.0127508 -1.81988 -4.27641 1.6604
O 6.6196 2.89579 -7.85666 -0.158422 -0.0197885 1.03704
O -0.198102 -1.54626 -2.66694 -2.21113 -2.33094 -0.201738
O -6.95665 0.766133 1.24759 -2.74747 3.14947 3.00856
O -3.08333 -4.7671 -4.59619 34.7043 7.14959 11.1718
O 1.33062 5.83165 2.08238 -1.42418 -4.59807 -0.603395
O -7.74475 -2.05168 2.77998 -0.805737 -1.75898 0.26534
O 5.17926 0.646633 -5.0899 3.86562 -1.22517 3.56283
O -1.44488 -7.8273 1.23202 -0.472209 0.606624 1.72312
O 6.93092 5.2032 -1.51546 0.637131 -0.267267 -0.97604
O -6.74583 -0.970193 -4.71073 -0.612602 0.51883 -2.17798
O -0.578765 4.22197 1.44336 -9.76121 -5.02339 -14.903
O -5.11289 -7.62503 0.111392 0.906341 1.10915 3.29812
O -1.49462 4.36217 -7.27078 -1.29938 -1.15827 -4.82247
O -3.28786 5.11728 6.03364 2.29694 -0.163515 0.390286
O 7.74538 6.29891 2.62008 -13.6816 10.056 22.5501
O 4.53237 2.5218 0.552419 -3.40053 -0.492178 -0.742858
O 6.01844 -1.36363 -6.89657 1.74817 -1.37993 -4.29591
O -7.44159 5.66502 0.48652 4.67827 -0.593042 -5.14339
O 1.41856 -4.97385 -6.59886 1.10346 1.10701 0.435038
O -7.09262 -5.54681 -2.21924 -2.68032 -1.8799 -0.611348
O -7.46054 -6.53919 5.19155 2.63514 -1.4319 1.49162
O -3.85078 -6.17647 6.19171 -1.80514 -1.53694 1.3641
O 6.13786 6.98931 -1.98767 0.0395993 -0.453937 -0.334665
O 6.78189 -3.12615 7.17148 -9.93323 11.5639 9.00586
O 5.77755 8.1738 -5.46773 18.4312 -5.6857 4.31188
O 3.6237 5.64824 -4.10642 -0.379201 0.396639 0.0467338
O 3.49543 -4.35761 -6.49804 -0.772158 -0.607207 -0.438464
O -8.26203 -4.57629 7.71626 4.22707 -3.16092 0.909107
O 1.59169 3.47616 -4.92155 -1.74046 7.24054 -1.8831
O 0.288761 -2.86157 -0.963925 -0.540527 -1.99474 1.55692
O 2.20231 1.22848 -5.96897 -0.94619 1.09601 0.217777
O 7.03965 6.85015 0.448903 2.31085 -2.14372 3.72341
O -3.16067 6.80261 -2.84493 0.837595 -1.01213 1.29542
O 7.46324 -3.89534 6.56732 7.94124 -7.37904 -8.4296
O -8.14532 1.32661 6.91015 -2.00005 13.0397 6.71401
O 3.72694 -6.85701 -5.5539 -3.45401 5.14363 3.62817
O -4.14369 -8.07486 -4.498 18.8281 -108.075 109.421
O 8.18264 -6.16611 -8.1788 -1.11345 -0.476399 0.932238
O -0.713349 2.79124 6.57718 1.22264 2.02841 -0.173647
O 2.64767 1.93675 2.27521 -15.1782 -1.83453 -9.80866
O -4.66213 4.58847 3.37582 0.0821093 0.693079 -0.193885
O 0.789465 6.04765 -4.25391 -4.17705 -0.0340606 -0.860885
O 3.34493 -0.427921 -4.22989 -2.91661 -0.576891 5.58418
O -0.659254 -5.18822 -5.67337 0.911039 3.37048 -0.47263
O -6.54755 5.11822 8.12106 2.97074 -0.113143 -1.35307
O 0.216644 -1.99879 -5.36187 -3.69798 1.49226 -0.432592
O 4.95843 5.09301 0.822465 -2.01459 2.72576 -1.49408
O -0.932093 -0.516564 -7.52002 1.07484 -0.194467 2.38673
O -1.17811 -2.96917 4.74915 -0.114194 -2.94505 2.59416
O -6.91558 2.80058 -5.17698 -1.60794 0.69592 -2.64233
O 3.39264 -7.08195 0.757906 -10.928 3.12389 -5.85896
O 0.344522 -8.09577 -3.56674 -0.142481 1.29264 0.395057
O -2.92048 5.93093 -6.71247 3.71848 -16.2522 -0.669038
O -6.67877 6.37864 2.6617 0.14003 3.89523 -1.07415
O 2.17558 1.00532 5.04275 -2.46936 -1.74343 -0.297702
O 0.884846 2.33872 1.23714 1.04705 -3.13543 29.6954
O 7.51627 8.05953 -6.39571 2.25276 -2.78914 -3.40377
O -5.37589 7.09675 -4.53493 -4.63086 -5.55211 -4.27607
O -3.99098 -3.25279 6.66678 -0.270413 0.0193857 1.22915
O -3.80934 4.78993 -2.46791 11.1209 -8.19253 -21.4633
O 3.81479 -7.13976 -0.653438 0.70474 -0.725452 0.516169
O 2.05825 -5.31846 -7.6285 0.524856 2.32865 0.60092
O 5.59212 5.37896 -7.8135 -1.7984 1.25979 -0.219837
